
    -----------------------------------------------------------------------
          Psi4: An Open-Source Ab Initio Electronic Structure Package
                               Psi4 1.10 release

                         Git: Rev {} zzzzzzz 


    D. G. A. Smith, L. A. Burns, A. C. Simmonett, R. M. Parrish,
    M. C. Schieber, R. Galvelis, P. Kraus, H. Kruse, R. Di Remigio,
    A. Alenaizan, A. M. James, S. Lehtola, J. P. Misiewicz, M. Scheurer,
    R. A. Shaw, J. B. Schriber, Y. Xie, Z. L. Glick, D. A. Sirianni,
    J. S. O'Brien, J. M. Waldrop, A. Kumar, E. G. Hohenstein,
    B. P. Pritchard, B. R. Brooks, H. F. Schaefer III, A. Yu. Sokolov,
    K. Patkowski, A. E. DePrince III, U. Bozkaya, R. A. King,
    F. A. Evangelista, J. M. Turney, T. D. Crawford, C. D. Sherrill,
    J. Chem. Phys. 152(18) 184108 (2020). https://doi.org/10.1063/5.0006002

                            Additional Code Authors
    E. T. Seidl, C. L. Janssen, E. F. Valeev, M. L. Leininger,
    J. F. Gonthier, R. M. Richard, H. R. McAlexander, M. Saitow, X. Wang,
    P. Verma, M. H. Lechner, A. Jiang, S. Behnle, A. G. Heide,
    M. F. Herbst, D. L. Poole, T. Győri, E. C. Mitchell, J. P. Pederson,
    and A. M. Wallace

             Previous Authors, Complete List of Code Contributors,
                       and Citations for Specific Modules
    https://github.com/psi4/psi4/blob/master/codemeta.json
    https://github.com/psi4/psi4/graphs/contributors
    https://psicode.org/psi4manual/master/introduction.html#citing-psifour

    -----------------------------------------------------------------------


    Psi4 started on: Sunday, 26 April 2026 11:19AM

    Process ID: 66559
    Host:       sycamore
    PSIDATADIR: /home/shbae/covalent/.pixi/envs/default/share/psi4
    Memory:     3.7 GiB
    Threads:    4
    Addons:     a̶d̶c̶c̶, a̶m̶b̶i̶t̶, b̶s̶e̶, c̶c̶t̶3̶, c̶f̶o̶u̶r̶, c̶h̶e̶m̶p̶s̶2̶, c̶p̶p̶e̶, d̶d̶x̶,
                d̶f̶t̶d̶3̶, d̶f̶t̶d̶4̶, dkh, ecpint, einsums, f̶o̶r̶t̶e̶, g̶a̶u̶x̶c̶, g̶c̶p̶,
                g̶d̶m̶a̶, g̶e̶o̶m̶e̶t̶r̶i̶c̶, g̶p̶u̶_̶d̶f̶c̶c̶, i̶n̶t̶e̶g̶r̶a̶t̶o̶r̶x̶x̶,
                i̶p̶i̶, l̶i̶b̶e̶f̶p̶, m̶d̶i̶, m̶p̶2̶d̶, m̶r̶c̶c̶, ooo,
                o̶p̶e̶n̶f̶e̶r̶m̶i̶o̶n̶p̶s̶i̶4̶, pcmsolver, p̶s̶i̶4̶f̶o̶c̶k̶c̶i̶, p̶s̶i̶x̶a̶s̶,
                r̶e̶s̶p̶, s̶i̶m̶i̶n̶t̶, s̶n̶s̶m̶p̶2̶, v̶2̶r̶d̶m̶_̶c̶a̶s̶s̶c̶f̶

Scratch directory: /tmp/
gradient() will perform analytic gradient computation.
   => Libint2 <=

    Primary   basis highest AM E, G, H:  7, 6, 3
    Auxiliary basis highest AM E, G, H:  7, 7, 4
    Onebody   basis highest AM E, G, H:  -, -, -
    Solid Harmonics ordering:            Gaussian

*** tstart() called on sycamore
*** at Sun Apr 26 11:19:07 2026

   => Loading Basis Set <=

    Name: 6-31G*
    Role: ORBITAL
    Keyword: BASIS
    atoms 1-3  entry C          line   111 file /home/shbae/covalent/.pixi/envs/default/share/psi4/basis/6-31gs.gbs 
    atoms 4    entry O          line   145 file /home/shbae/covalent/.pixi/envs/default/share/psi4/basis/6-31gs.gbs 
    atoms 5    entry N          line   128 file /home/shbae/covalent/.pixi/envs/default/share/psi4/basis/6-31gs.gbs 
    atoms 6-10 entry H          line    44 file /home/shbae/covalent/.pixi/envs/default/share/psi4/basis/6-31gs.gbs 


         ---------------------------------------------------------
                                   SCF
               by Justin Turney, Rob Parrish, Andy Simmonett
                          and Daniel G. A. Smith
                              RKS Reference
                        4 Threads,   3814 MiB Core
         ---------------------------------------------------------

  ==> Geometry <==

    Molecular point group: c1
    Full point group: C1

    Geometry (in Angstrom), charge = 0, multiplicity = 1:

       Center              X                  Y                   Z               Mass       
    ------------   -----------------  -----------------  -----------------  -----------------
         C           -1.778458645631    -0.171084358830    -0.180455019277    12.000000000000
         C           -0.469608745516    -0.425737214434    -0.171006643043    12.000000000000
         C            0.475161379262     0.475803506516     0.559700467158    12.000000000000
         O            0.114450291211     1.471713185041     1.174494391728    15.994914619570
         N            1.790546150456     0.099488675178     0.488875734194    14.003074004430
         H           -2.162908094332     0.697752157088     0.346356478823     1.007825032230
         H           -2.485716956233    -0.808449884794    -0.702438527086     1.007825032230
         H           -0.061663794682    -1.290953796641    -0.692188068121     1.007825032230
         H            2.101581160742    -0.717468445900    -0.013391893628     1.007825032230
         H            2.476617254724     0.668936176777     0.962635062396     1.007825032230

  Running in c1 symmetry.

  Rotational constants: A =      0.28087  B =      0.13282  C =      0.09132 [cm^-1]
  Rotational constants: A =   8420.30413  B =   3981.95292  C =   2737.80972 [MHz]
  Nuclear repulsion =  162.488433741478275

  Charge       = 0
  Multiplicity = 1
  Electrons    = 38
  Nalpha       = 19
  Nbeta        = 19

  ==> Algorithm <==

  SCF Algorithm Type is DF.
  DIIS enabled.
  MOM disabled.
  Fractional occupation disabled.
  Guess Type is SAD.
  Energy threshold   = 1.00e-08
  Density threshold  = 1.00e-08
  Integral threshold = 1.00e-12

  ==> Primary Basis <==

  Basis Set: 6-31G*
    Blend: 6-31G*
    Number of shells: 40
    Number of basis functions: 85
    Number of Cartesian functions: 85
    Spherical Harmonics?: false
    Max angular momentum: 2

  ==> DFT Potential <==

   => LibXC <=

    Version 7.0.0
    S. Lehtola, C. Steigemann, M. J.T. Oliveira, and M. A.L. Marques.,  SoftwareX 7, 1–5 (2018) (10.1016/j.softx.2017.11.002)

   => Composite Functional: B3LYP <= 

    B3LYP Hyb-GGA Exchange-Correlation Functional

    P. J. Stephens, F. J. Devlin, C. F. Chabalowski, and M. J. Frisch.,  J. Phys. Chem. 98, 11623 (1994) (10.1021/j100096a001)

    Deriv               =              1
    GGA                 =           TRUE
    Meta                =          FALSE

    Exchange Hybrid     =           TRUE
    MP2 Hybrid          =          FALSE

   => Exchange Functionals <=

    0.0800   Slater exchange
    0.7200         Becke 88

   => Exact (HF) Exchange <=

    0.2000               HF 

   => Correlation Functionals <=

    0.1900   Vosko, Wilk & Nusair (VWN5_RPA)
    0.8100   Lee, Yang & Parr

   => LibXC Density Thresholds  <==

    XC_HYB_GGA_XC_B3LYP:  1.00E-15 

   => Molecular Quadrature <=

    Radial Scheme          =       TREUTLER
    Pruning Scheme         =           NONE
    Nuclear Scheme         =       TREUTLER

    Blocking Scheme        =         OCTREE
    BS radius alpha        =              1
    Pruning alpha          =              1
    Radial Points          =             75
    Spherical Points       =            302
    Total Points           =         213007
    Total Blocks           =           1614
    Max Points             =            256
    Max Functions          =             84
    Weights Tolerance      =       1.00E-15

   => Loading Basis Set <=

    Name: (6-31G* AUX)
    Role: JKFIT
    Keyword: DF_BASIS_SCF
    atoms 1-3  entry C          line   121 file /home/shbae/covalent/.pixi/envs/default/share/psi4/basis/cc-pvdz-jkfit.gbs 
    atoms 4    entry O          line   221 file /home/shbae/covalent/.pixi/envs/default/share/psi4/basis/cc-pvdz-jkfit.gbs 
    atoms 5    entry N          line   171 file /home/shbae/covalent/.pixi/envs/default/share/psi4/basis/cc-pvdz-jkfit.gbs 
    atoms 6-10 entry H          line    51 file /home/shbae/covalent/.pixi/envs/default/share/psi4/basis/cc-pvdz-jkfit.gbs 

  ==> Integral Setup <==

  DFHelper Memory: AOs need 0.032 GiB; user supplied 2.361 GiB. 
  SCF_SUBTYPE=INCORE selected. In-core MEM_DF algorithm will be used.
  Using in-core AOs.

  ==> MemDFJK: Density-Fitted J/K Matrices <==

    J tasked:                   Yes
    K tasked:                   Yes
    wK tasked:                   No
    OpenMP threads:               4
    Memory [MiB]:              2418
    Algorithm:                 Core
    Schwarz Cutoff:           1E-12
    Mask sparsity (%):       0.7474
    Fitting Condition:        1E-10

   => Auxiliary Basis Set <=

  Basis Set: (6-31G* AUX)
    Blend: CC-PVDZ-JKFIT
    Number of shells: 165
    Number of basis functions: 530
    Number of Cartesian functions: 530
    Spherical Harmonics?: false
    Max angular momentum: 3

  Cached 100.0% of DFT collocation blocks in 0.433 [GiB].

  Minimum eigenvalue in the overlap matrix is 2.7117995089E-03.
  Reciprocal condition number of the overlap matrix is 3.9617868659E-04.
    Using symmetric orthogonalization.

  ==> Pre-Iterations <==

  SCF Guess: Superposition of Atomic Densities via on-the-fly atomic UHF (no occupation information).

   -------------------------
    Irrep   Nso     Nmo    
   -------------------------
     A         85      85 
   -------------------------
    Total      85      85
   -------------------------

  ==> Iterations <==

                           Total Energy        Delta E     RMS |[F,P]|

   @DF-RKS iter SAD:  -242.57738940984370   -2.42577e+02   0.00000e+00 
   @DF-RKS iter   1:  -237.91565960506267    4.66173e+00   3.67775e-02 DIIS/ADIIS
   @DF-RKS iter   2:  -224.08834688243090    1.38273e+01   6.93840e-02 DIIS/ADIIS
   @DF-RKS iter   3:  -244.75029224328782   -2.06619e+01   2.52838e-02 DIIS/ADIIS
   @DF-RKS iter   4:  -245.42484423329807   -6.74552e-01   2.30708e-02 DIIS/ADIIS
   @DF-RKS iter   5:  -247.19405068578178   -1.76921e+00   4.80760e-03 DIIS/ADIIS
   @DF-RKS iter   6:  -247.17163927896249    2.24114e-02   6.16438e-03 DIIS/ADIIS
   @DF-RKS iter   7:  -247.29014692568651   -1.18508e-01   6.80185e-04 DIIS/ADIIS
   @DF-RKS iter   8:  -247.29102472619184   -8.77801e-04   3.92207e-04 DIIS/ADIIS
   @DF-RKS iter   9:  -247.29148112686553   -4.56401e-04   4.59188e-05 DIIS
   @DF-RKS iter  10:  -247.29148872416013   -7.59729e-06   1.29891e-05 DIIS
   @DF-RKS iter  11:  -247.29148933773035   -6.13570e-07   5.12297e-06 DIIS
   @DF-RKS iter  12:  -247.29148942311821   -8.53879e-08   7.53343e-07 DIIS
   @DF-RKS iter  13:  -247.29148942522511   -2.10690e-09   1.46609e-07 DIIS
   @DF-RKS iter  14:  -247.29148942529577   -7.06564e-11   2.84784e-08 DIIS
   @DF-RKS iter  15:  -247.29148942529818   -2.41585e-12   1.06713e-08 DIIS
   @DF-RKS iter  16:  -247.29148942529832   -1.42109e-13   1.03028e-09 DIIS
  Energy and wave function converged.


  ==> Post-Iterations <==

   Electrons on quadrature grid:
      Ntotal   =   37.9999972712 ; deviation = -2.729e-06 

    Orbital Energies [Eh]
    ---------------------

    Doubly Occupied:                                                      

       1A    -19.104876     2A    -14.357799     3A    -10.287290  
       4A    -10.199974     5A    -10.197846     6A     -1.024105  
       7A     -0.901530     8A     -0.780091     9A     -0.643145  
      10A     -0.565416    11A     -0.528605    12A     -0.499863  
      13A     -0.422201    14A     -0.415535    15A     -0.405751  
      16A     -0.371897    17A     -0.276606    18A     -0.262766  
      19A     -0.248463  

    Virtual:                                                              

      20A     -0.030798    21A      0.071725    22A      0.101311  
      23A      0.110988    24A      0.140514    25A      0.158406  
      26A      0.192170    27A      0.279943    28A      0.319286  
      29A      0.331004    30A      0.392606    31A      0.504793  
      32A      0.527048    33A      0.576368    34A      0.603635  
      35A      0.614478    36A      0.655443    37A      0.660355  
      38A      0.674487    39A      0.702791    40A      0.733173  
      41A      0.813926    42A      0.844740    43A      0.859455  
      44A      0.880265    45A      0.896876    46A      0.913768  
      47A      0.982872    48A      1.040873    49A      1.048658  
      50A      1.093915    51A      1.162268    52A      1.248871  
      53A      1.316821    54A      1.346548    55A      1.385668  
      56A      1.439012    57A      1.491963    58A      1.627570  
      59A      1.693592    60A      1.704672    61A      1.816545  
      62A      1.833423    63A      1.836525    64A      1.935868  
      65A      1.993017    66A      2.018182    67A      2.051527  
      68A      2.151386    69A      2.189150    70A      2.271182  
      71A      2.321331    72A      2.422324    73A      2.438626  
      74A      2.498654    75A      2.664925    76A      2.665884  
      77A      2.696981    78A      2.915936    79A      3.053544  
      80A      3.123516    81A      3.799180    82A      4.005035  
      83A      4.141830    84A      4.301188    85A      4.517386  

    Final Occupation by Irrep:
              A 
    DOCC [    19 ]
    NA   [    19 ]
    NB   [    19 ]

  @DF-RKS Final Energy:  -247.29148942529832

   => Energetics <=

    Nuclear Repulsion Energy =            162.4884337414782749
    One-Electron Energy =                -657.0260456240689564
    Two-Electron Energy =                 274.4421541561889057
    DFT Exchange-Correlation Energy =     -27.1960316988965225
    Empirical Dispersion Energy =           0.0000000000000000
    VV10 Nonlocal Energy =                  0.0000000000000000
    Total Energy =                       -247.2914894252982947

Computation Completed


Properties will be evaluated at   0.000000,   0.000000,   0.000000 [a0]

Properties computed using the SCF density matrix


 Multipole Moments:

 ------------------------------------------------------------------------------------
     Multipole            Electronic (a.u.)      Nuclear  (a.u.)        Total (a.u.)
 ------------------------------------------------------------------------------------

 L = 1.  Multiply by 2.5417464519 to convert [e a0] to [Debye]
 Dipole X            :         -4.4485305            5.0642749            0.6157444
 Dipole Y            :        -20.5269250           19.4525271           -1.0743980
 Dipole Z            :        -27.0288483           26.3966227           -0.6322256
 Magnitude           :                                                    1.3903889

 ------------------------------------------------------------------------------------

*** tstop() called on sycamore at Sun Apr 26 11:19:09 2026
Module time:
	user time   =       5.79 seconds =       0.10 minutes
	system time =       0.03 seconds =       0.00 minutes
	total time  =          2 seconds =       0.03 minutes
Total time:
	user time   =      50.57 seconds =       0.84 minutes
	system time =       0.55 seconds =       0.01 minutes
	total time  =          8 seconds =       0.13 minutes

*** tstart() called on sycamore
*** at Sun Apr 26 11:19:09 2026


         ------------------------------------------------------------
                                   SCF GRAD                          
                          Rob Parrish, Justin Turney,                
                       Andy Simmonett, and Alex Sokolov              
         ------------------------------------------------------------

  ==> Geometry <==

    Molecular point group: c1
    Full point group: C1

    Geometry (in Angstrom), charge = 0, multiplicity = 1:

       Center              X                  Y                   Z               Mass       
    ------------   -----------------  -----------------  -----------------  -----------------
         C           -1.778458645631    -0.171084358830    -0.180455019277    12.000000000000
         C           -0.469608745516    -0.425737214434    -0.171006643043    12.000000000000
         C            0.475161379262     0.475803506516     0.559700467158    12.000000000000
         O            0.114450291211     1.471713185041     1.174494391728    15.994914619570
         N            1.790546150456     0.099488675178     0.488875734194    14.003074004430
         H           -2.162908094332     0.697752157088     0.346356478823     1.007825032230
         H           -2.485716956233    -0.808449884794    -0.702438527086     1.007825032230
         H           -0.061663794682    -1.290953796641    -0.692188068121     1.007825032230
         H            2.101581160742    -0.717468445900    -0.013391893628     1.007825032230
         H            2.476617254724     0.668936176777     0.962635062396     1.007825032230

  Nuclear repulsion =  162.488433741478275

  ==> Basis Set <==

  Basis Set: 6-31G*
    Blend: 6-31G*
    Number of shells: 40
    Number of basis functions: 85
    Number of Cartesian functions: 85
    Spherical Harmonics?: false
    Max angular momentum: 2

  ==> DFJKGrad: Density-Fitted SCF Gradients <==

    Gradient:                    1
    J tasked:                  Yes
    K tasked:                  Yes
    wK tasked:                  No
    OpenMP threads:              4
    Integrals threads:           4
    Memory [MiB]:             2861
    Schwarz Cutoff:          1E-12
    Fitting Condition:       1E-10

   => Auxiliary Basis Set <=

  Basis Set: (6-31G* AUX)
    Blend: CC-PVDZ-JKFIT
    Number of shells: 165
    Number of basis functions: 530
    Number of Cartesian functions: 530
    Spherical Harmonics?: false
    Max angular momentum: 3

  ==> DFT Potential <==

   => LibXC <=

    Version 7.0.0
    S. Lehtola, C. Steigemann, M. J.T. Oliveira, and M. A.L. Marques.,  SoftwareX 7, 1–5 (2018) (10.1016/j.softx.2017.11.002)

   => Composite Functional: B3LYP <= 

    B3LYP Hyb-GGA Exchange-Correlation Functional

    P. J. Stephens, F. J. Devlin, C. F. Chabalowski, and M. J. Frisch.,  J. Phys. Chem. 98, 11623 (1994) (10.1021/j100096a001)

    Deriv               =              1
    GGA                 =           TRUE
    Meta                =          FALSE

    Exchange Hybrid     =           TRUE
    MP2 Hybrid          =          FALSE

   => Exchange Functionals <=

    0.0800   Slater exchange
    0.7200         Becke 88

   => Exact (HF) Exchange <=

    0.2000               HF 

   => Correlation Functionals <=

    0.1900   Vosko, Wilk & Nusair (VWN5_RPA)
    0.8100   Lee, Yang & Parr

   => LibXC Density Thresholds  <==

    XC_HYB_GGA_XC_B3LYP:  1.00E-15 

   => Molecular Quadrature <=

    Radial Scheme          =       TREUTLER
    Pruning Scheme         =           NONE
    Nuclear Scheme         =       TREUTLER

    Blocking Scheme        =         OCTREE
    BS radius alpha        =              1
    Pruning alpha          =              1
    Radial Points          =             75
    Spherical Points       =            302
    Total Points           =         213007
    Total Blocks           =           1614
    Max Points             =            256
    Max Functions          =             84
    Weights Tolerance      =       1.00E-15


  -Total Gradient:
     Atom            X                  Y                   Z
    ------   -----------------  -----------------  -----------------
       1        0.000027833969    -0.000044386549    -0.000025336081
       2       -0.000032455957     0.000144218748     0.000089968570
       3       -0.000035887162    -0.000114201390    -0.000075236971
       4        0.000025768737     0.000020508750     0.000014765488
       5        0.000056465061     0.000041046085     0.000033691015
       6       -0.000010911149     0.000011605317     0.000006052940
       7        0.000004997609     0.000007287933     0.000005464342
       8        0.000038557992    -0.000070992025    -0.000042162675
       9       -0.000034507364    -0.000004192848    -0.000007833431
      10       -0.000022746195    -0.000001882713    -0.000004357012


*** tstop() called on sycamore at Sun Apr 26 11:19:09 2026
Module time:
	user time   =       1.00 seconds =       0.02 minutes
	system time =       0.00 seconds =       0.00 minutes
	total time  =          0 seconds =       0.00 minutes
Total time:
	user time   =      51.58 seconds =       0.86 minutes
	system time =       0.55 seconds =       0.01 minutes
	total time  =          8 seconds =       0.13 minutes

    			-----------------------------------------

    			 OPTKING 3.0: for geometry optimizations 

    			     By R.A. King, Bethel University     

    			        with contributions from          

    			    A.V. Copan, J. Cayton, A. Heide      

    			-----------------------------------------

    
	                            ===> Fragment 1 <== 

	 Z (Atomic Numbers)          Masses                          Geom                  
	       6.000000            12.000000         -3.36079977 -0.32330258 -0.34101056   
	       6.000000            12.000000         -0.88743192 -0.80452674 -0.32315572   
	       6.000000            12.000000          0.89792487  0.89913832  1.05768060   
	       8.000000            15.994915          0.21627971  2.78113485  2.21947274   
	       7.000000            14.003074          3.38364184  0.18800635  0.92384125   
	       1.000000             1.007825         -4.08730393  1.31856048  0.65451889   
	       1.000000             1.007825         -4.69732427 -1.52774887 -1.32741644   
	       1.000000             1.007825         -0.11652768 -2.43954912 -1.30804588   
	       1.000000             1.007825          3.97141282 -1.35581887 -0.02530701   
	       1.000000             1.007825          4.68012833  1.26410617  1.81911663   

	 - Coordinate -           - BOHR/RAD -       - ANG/DEG -
	 R(1,2)           =         2.519810           1.333426
	 R(1,6)           =         2.052949           1.086374
	 R(1,7)           =         2.051825           1.085779
	 R(2,3)           =         2.827841           1.496429
	 R(2,8)           =         2.058543           1.089334
	 R(3,4)           =         2.314371           1.224712
	 R(3,5)           =         2.588901           1.369988
	 R(5,9)           =         1.905191           1.008184
	 R(5,10)          =         1.907980           1.009659
	 B(1,2,3)         =         2.103794         120.538525
	 B(1,2,8)         =         2.112835         121.056500
	 B(2,1,6)         =         2.090542         119.779241
	 B(2,1,7)         =         2.130198         122.051326
	 B(2,3,4)         =         2.152061         123.304008
	 B(2,3,5)         =         1.999240         114.548012
	 B(3,2,8)         =         2.066557         118.404975
	 B(3,5,9)         =         2.146653         122.994150
	 B(3,5,10)        =         2.063767         118.245132
	 B(4,3,5)         =         2.131884         122.147980
	 B(6,1,7)         =         2.062446         118.169433
	 B(9,5,10)        =         2.072766         118.760718
	 D(1,2,3,4)       =        -0.000019          -0.001099
	 D(1,2,3,5)       =        -3.141576        -179.999052
	 D(2,3,5,9)       =        -0.000018          -0.001018
	 D(2,3,5,10)      =         3.141577         179.999096
	 D(3,2,1,6)       =         0.000000           0.000000
	 D(3,2,1,7)       =         3.141593         180.000000
	 D(4,3,2,8)       =         3.141573         179.998865
	 D(4,3,5,9)       =        -3.141575        -179.998998
	 D(4,3,5,10)      =         0.000019           0.001117
	 D(5,3,2,8)       =         0.000016           0.000913
	 D(6,1,2,8)       =         3.141593         180.000000
	 D(7,1,2,8)       =        -0.000000          -0.000000


	        --- Internal Coordinate Step in ANG or DEG, aJ/ANG or AJ/DEG ---
	-------------------------------------------------------------------------------
	           Coordinate      Previous         Force          Change          New 
	           ----------      --------        ------          ------        ------
	               R(1,2)       1.33343        0.00017        0.00002       1.33344
	               R(1,6)       1.08637       -0.00015       -0.00003       1.08635
	               R(1,7)       1.08578        0.00008        0.00001       1.08579
	               R(2,3)       1.49643        0.00051        0.00010       1.49653
	               R(2,8)       1.08933       -0.00074       -0.00014       1.08920
	               R(3,4)       1.22471       -0.00015       -0.00001       1.22470
	               R(3,5)       1.36999        0.00015        0.00002       1.37001
	               R(5,9)       1.00818        0.00004        0.00001       1.00819
	              R(5,10)       1.00966        0.00015        0.00002       1.00968
	             B(1,2,3)     120.53853       -0.00000       -0.01181     120.52671
	             B(1,2,8)     121.05650        0.00000        0.00449     121.06098
	             B(2,1,6)     119.77924       -0.00000       -0.00244     119.77680
	             B(2,1,7)     122.05133       -0.00000       -0.00025     122.05107
	             B(2,3,4)     123.30401       -0.00000       -0.00544     123.29857
	             B(2,3,5)     114.54801       -0.00000       -0.00535     114.54266
	             B(3,2,8)     118.40497        0.00000        0.00733     118.41230
	             B(3,5,9)     122.99415        0.00000        0.01294     123.00709
	            B(3,5,10)     118.24513       -0.00000       -0.00091     118.24423
	             B(4,3,5)     122.14798        0.00000        0.01078     122.15876
	             B(6,1,7)     118.16943        0.00000        0.00269     118.17212
	            B(9,5,10)     118.76072       -0.00000       -0.01204     118.74868
	           D(1,2,3,4)      -0.00110        0.00000        0.00551       0.00441
	           D(1,2,3,5)    -179.99905       -0.00000       -0.00457    -180.00362
	           D(2,3,5,9)      -0.00102        0.00000        0.00422       0.00320
	          D(2,3,5,10)     179.99910        0.00000        0.00494     180.00403
	           D(3,2,1,6)       0.00000       -0.00000       -0.00000      -0.00000
	           D(3,2,1,7)     180.00000        0.00000        0.00000     180.00000
	           D(4,3,2,8)     179.99887        0.00000        0.00546     180.00432
	           D(4,3,5,9)    -179.99900       -0.00000       -0.00572    -180.00472
	          D(4,3,5,10)       0.00112       -0.00000       -0.00501      -0.00389
	           D(5,3,2,8)       0.00091       -0.00000       -0.00462      -0.00371
	           D(6,1,2,8)     180.00000       -0.00000        0.00000     180.00000
	           D(7,1,2,8)      -0.00000        0.00000        0.00000      -0.00000
	-------------------------------------------------------------------------------

	                                 ==> Convergence Check <==                                  
    
	Measures of convergence in internal coordinates in au.
    
	Criteria marked as inactive (o), active & met (*), and active & unmet ( ).

	----------------------------------------------------------------------------------------------~
	   Step    Total Energy     Delta E     Max Force     RMS Force      Max Disp      RMS Disp   ~
	----------------------------------------------------------------------------------------------~
	  Convergence Criteria     1.00e-06 *    3.00e-04 *             o    1.20e-03 *             o~
	----------------------------------------------------------------------------------------------~
	     1    -247.29148943   -2.47e+02      8.93e-05 *    2.62e-05 o    2.56e-04 *    1.08e-04 o  ~
	----------------------------------------------------------------------------------------------

Next Geometry in Ang 
	Fragment 1 (Ang)

	    C  -1.7784413682  -0.1710714670  -0.1804374675
	    C  -0.4695948421  -0.4258442618  -0.1711069304
	    C   0.4751485511   0.4758549712   0.5596436909
	    O   0.1142242354   1.4716689122   1.1744470263
	    N   1.7905391847   0.0994847141   0.4888688498
	    H  -2.1627138217   0.6977891464   0.3464088677
	    H  -2.4858101986  -0.8083894917  -0.7023598376
	    H  -0.0617465627  -1.2909703452  -0.6922311363
	    H   2.1017793726  -0.7174430669  -0.0133313580
	    H   2.4766154496   0.6689208887   0.9626802782


    Final optimized geometry and variables:
    Molecular point group: c1
    Full point group: C1

    Geometry (in Angstrom), charge = 0, multiplicity = 1:

    C           -1.778458645631    -0.171084358830    -0.180455019277
    C           -0.469608745516    -0.425737214434    -0.171006643043
    C            0.475161379262     0.475803506516     0.559700467158
    O            0.114450291211     1.471713185041     1.174494391728
    N            1.790546150456     0.099488675178     0.488875734194
    H           -2.162908094332     0.697752157088     0.346356478823
    H           -2.485716956233    -0.808449884794    -0.702438527086
    H           -0.061663794682    -1.290953796641    -0.692188068121
    H            2.101581160742    -0.717468445900    -0.013391893628
    H            2.476617254724     0.668936176777     0.962635062396

