
Host: sycamore

Timers On : Wed Apr 22 21:18:27 2026
Timers Off: Wed Apr 22 21:18:37 2026

Wall Time:       10.46 seconds

                                                       Time (seconds)
Module                                       User      System        Wall        Calls
V: Grid                             :      2.800u      0.033s      0.420w      4 calls
build grid                          :      1.483u      0.017s      0.226w      4 calls
post-process grid                   :      1.283u      0.017s      0.194w      4 calls
DFH: sparsity prep                  :      0.300u      0.000s      0.050w      4 calls
Libint2ERI::Libint2ERI              :      0.600u      0.000s      0.095w     52 calls
DFH: initialize()                   :      1.783u      0.083s      0.285w      4 calls
DFH: AO Construction                :      0.350u      0.000s      0.051w      4 calls
DFH: AO-Met. Contraction            :      0.400u      0.033s      0.061w      4 calls
HF: Form core H                     :      0.133u      0.000s      0.036w      4 calls
HF: Form S/X                        :      0.050u      0.017s      0.004w      4 calls
HF: Guess                           :      0.383u      0.083s      0.070w      4 calls
SAD Guess                           :      0.383u      0.083s      0.069w      1 calls
HF: Form G                          :     23.133u      0.000s      3.506w     46 calls
RV: Form V                          :     22.150u      0.000s      3.343w     46 calls
Properties                          :      5.569p                          80732 calls
Functional                          :      4.251p                          80732 calls
V_xc                                :      5.438p                          74274 calls
JK: D                               :      0.000u      0.000s      0.001w     46 calls
JK: USO2AO                          :      0.000u      0.000s      0.000w     46 calls
JK: JK                              :      0.883u      0.000s      0.158w     46 calls
DFH: compute_JK()                   :      0.867u      0.000s      0.158w     46 calls
DFH: Grabbing AOs                   :      0.000u      0.000s      0.000w     46 calls
DFH: compute_J                      :      0.100u      0.000s      0.037w     46 calls
DFH: compute_K                      :      0.500u      0.000s      0.089w     46 calls
JK: AO2USO                          :      0.000u      0.000s      0.000w     46 calls
HF: Form F                          :      0.000u      0.000s      0.001w     46 calls
HF: Form D                          :      0.000u      0.000s      0.001w     46 calls
HF: DIIS                            :      2.767u      0.233s      1.186w     45 calls
HF: Form C                          :      0.317u      0.000s      0.040w     45 calls
Grad: V T Perturb                   :      0.000u      0.000s      0.008w      4 calls
Grad: S                             :      0.017u      0.000s      0.002w      4 calls
Grad: JK                            :      3.167u      0.017s      0.494w      4 calls
JKGrad: Amn                         :      1.000u      0.017s      0.152w      4 calls
JKGrad: Awmn                        :      0.000u      0.000s      0.000w      4 calls
JKGrad: AB                          :      0.733u      0.000s      0.109w      4 calls
JKGrad: UV                          :      0.067u      0.000s      0.010w      4 calls
JKGrad: ABx                         :      0.083u      0.000s      0.015w      4 calls
JKGrad: Amnx                        :      1.167u      0.000s      0.191w      4 calls
Grad: XC                            :      4.750u      0.000s      0.710w      4 calls
V_xc gradient                       :      0.825p                           6458 calls

--------------------------------------------------------------------------------------
V: Grid                             :      2.800u      0.033s      0.420w      4 calls
| build grid                        :      1.483u      0.017s      0.226w      4 calls
| post-process grid                 :      1.283u      0.017s      0.194w      4 calls
DFH: sparsity prep                  :      0.300u      0.000s      0.050w      4 calls
| Libint2ERI::Libint2ERI            :      0.233u      0.000s      0.038w      4 calls
DFH: initialize()                   :      1.783u      0.083s      0.285w      4 calls
| Libint2ERI::Libint2ERI            :      0.117u      0.000s      0.020w     20 calls
| DFH: AO Construction              :      0.350u      0.000s      0.051w      4 calls
| DFH: AO-Met. Contraction          :      0.400u      0.033s      0.061w      4 calls
HF: Form core H                     :      0.133u      0.000s      0.036w      4 calls
HF: Form S/X                        :      0.050u      0.017s      0.004w      4 calls
HF: Guess                           :      0.383u      0.083s      0.070w      4 calls
| SAD Guess                         :      0.383u      0.083s      0.069w      1 calls
HF: Form G                          :     23.133u      0.000s      3.506w     46 calls
| RV: Form V                        :     22.150u      0.000s      3.343w     46 calls
| | Properties                      :      3.937p                          74274 calls
| | Functional                      :      3.908p                          74274 calls
| | V_xc                            :      5.438p                          74274 calls
| JK: D                             :      0.000u      0.000s      0.001w     46 calls
| JK: USO2AO                        :      0.000u      0.000s      0.000w     46 calls
| JK: JK                            :      0.883u      0.000s      0.158w     46 calls
| | DFH: compute_JK()               :      0.867u      0.000s      0.158w     46 calls
| | | DFH: Grabbing AOs             :      0.000u      0.000s      0.000w     46 calls
| | | DFH: compute_J                :      0.100u      0.000s      0.037w     46 calls
| | | DFH: compute_K                :      0.500u      0.000s      0.089w     46 calls
| JK: AO2USO                        :      0.000u      0.000s      0.000w     46 calls
HF: Form F                          :      0.000u      0.000s      0.001w     46 calls
HF: Form D                          :      0.000u      0.000s      0.001w     46 calls
HF: DIIS                            :      2.767u      0.233s      1.186w     45 calls
HF: Form C                          :      0.317u      0.000s      0.040w     45 calls
Grad: V T Perturb                   :      0.000u      0.000s      0.008w      4 calls
Grad: S                             :      0.017u      0.000s      0.002w      4 calls
Grad: JK                            :      3.167u      0.017s      0.494w      4 calls
| JKGrad: Amn                       :      1.000u      0.017s      0.152w      4 calls
| | Libint2ERI::Libint2ERI          :      0.117u      0.000s      0.019w      4 calls
| JKGrad: Awmn                      :      0.000u      0.000s      0.000w      4 calls
| JKGrad: AB                        :      0.733u      0.000s      0.109w      4 calls
| | Libint2ERI::Libint2ERI          :      0.017u      0.000s      0.001w     16 calls
| JKGrad: UV                        :      0.067u      0.000s      0.010w      4 calls
| JKGrad: ABx                       :      0.083u      0.000s      0.015w      4 calls
| | Libint2ERI::Libint2ERI          :      0.000u      0.000s      0.000w      4 calls
| JKGrad: Amnx                      :      1.167u      0.000s      0.191w      4 calls
| | Libint2ERI::Libint2ERI          :      0.117u      0.000s      0.017w      4 calls
Grad: XC                            :      4.750u      0.000s      0.710w      4 calls
| Properties                        :      1.632p                           6458 calls
| Functional                        :      0.343p                           6458 calls
| V_xc gradient                     :      0.825p                           6458 calls

**************************************************************************************

Host: sycamore

Timers On : Wed Apr 22 21:24:50 2026
Timers Off: Wed Apr 22 21:25:20 2026

Wall Time:       30.22 seconds

                                                       Time (seconds)
Module                                       User      System        Wall        Calls
V: Grid                             :     11.700u      0.117s      1.539w     16 calls
build grid                          :      6.650u      0.067s      0.800w     16 calls
post-process grid                   :      4.900u      0.050s      0.737w     16 calls
DFH: sparsity prep                  :      0.867u      0.033s      0.153w     16 calls
Libint2ERI::Libint2ERI              :      2.017u      0.000s      0.328w    208 calls
DFH: initialize()                   :      6.333u      0.150s      0.989w     16 calls
DFH: AO Construction                :      1.150u      0.017s      0.191w     16 calls
DFH: AO-Met. Contraction            :      1.483u      0.033s      0.216w     16 calls
HF: Form core H                     :      0.667u      0.017s      0.129w     16 calls
HF: Form S/X                        :      0.050u      0.000s      0.012w     16 calls
HF: Guess                           :      0.950u      0.083s      0.154w     16 calls
SAD Guess                           :      0.917u      0.083s      0.151w      3 calls
HF: Form G                          :     85.933u      0.017s     13.084w    181 calls
RV: Form V                          :     82.333u      0.000s     12.506w    181 calls
Properties                          :     20.668p                         319314 calls
Functional                          :     16.214p                         319314 calls
V_xc                                :     20.769p                         293385 calls
JK: D                               :      0.033u      0.000s      0.003w    181 calls
JK: USO2AO                          :      0.000u      0.000s      0.001w    181 calls
JK: JK                              :      3.300u      0.017s      0.565w    181 calls
DFH: compute_JK()                   :      3.283u      0.017s      0.562w    181 calls
DFH: Grabbing AOs                   :      0.000u      0.000s      0.000w    181 calls
DFH: compute_J                      :      0.267u      0.000s      0.139w    181 calls
DFH: compute_K                      :      1.567u      0.000s      0.343w    181 calls
JK: AO2USO                          :      0.000u      0.000s      0.000w    181 calls
HF: Form F                          :      0.000u      0.000s      0.003w    181 calls
HF: Form D                          :      0.017u      0.000s      0.002w    181 calls
HF: DIIS                            :      4.117u      0.233s      0.849w    178 calls
HF: Form C                          :      1.067u      0.000s      0.160w    178 calls
Grad: V T Perturb                   :      0.150u      0.000s      0.026w     16 calls
Grad: S                             :      0.033u      0.000s      0.008w     16 calls
Grad: JK                            :     12.450u      0.150s      1.913w     16 calls
JKGrad: Amn                         :      3.917u      0.000s      0.593w     16 calls
JKGrad: Awmn                        :      0.000u      0.000s      0.000w     16 calls
JKGrad: AB                          :      2.950u      0.033s      0.446w     16 calls
JKGrad: UV                          :      0.233u      0.017s      0.037w     16 calls
JKGrad: ABx                         :      0.317u      0.017s      0.054w     16 calls
JKGrad: Amnx                        :      4.783u      0.017s      0.731w     16 calls
Grad: XC                            :     18.850u      0.017s      2.829w     16 calls
V_xc gradient                       :      3.239p                          25929 calls

--------------------------------------------------------------------------------------
V: Grid                             :     11.700u      0.117s      1.539w     16 calls
| build grid                        :      6.650u      0.067s      0.800w     16 calls
| post-process grid                 :      4.900u      0.050s      0.737w     16 calls
DFH: sparsity prep                  :      0.867u      0.033s      0.153w     16 calls
| Libint2ERI::Libint2ERI            :      0.617u      0.000s      0.108w     16 calls
DFH: initialize()                   :      6.333u      0.150s      0.989w     16 calls
| Libint2ERI::Libint2ERI            :      0.417u      0.000s      0.073w     80 calls
| DFH: AO Construction              :      1.150u      0.017s      0.191w     16 calls
| DFH: AO-Met. Contraction          :      1.483u      0.033s      0.216w     16 calls
HF: Form core H                     :      0.667u      0.017s      0.129w     16 calls
HF: Form S/X                        :      0.050u      0.000s      0.012w     16 calls
HF: Guess                           :      0.950u      0.083s      0.154w     16 calls
| SAD Guess                         :      0.917u      0.083s      0.151w      3 calls
HF: Form G                          :     85.933u      0.017s     13.084w    181 calls
| RV: Form V                        :     82.333u      0.000s     12.506w    181 calls
| | Properties                      :     14.072p                         293385 calls
| | Functional                      :     14.877p                         293385 calls
| | V_xc                            :     20.769p                         293385 calls
| JK: D                             :      0.033u      0.000s      0.003w    181 calls
| JK: USO2AO                        :      0.000u      0.000s      0.001w    181 calls
| JK: JK                            :      3.300u      0.017s      0.565w    181 calls
| | DFH: compute_JK()               :      3.283u      0.017s      0.562w    181 calls
| | | DFH: Grabbing AOs             :      0.000u      0.000s      0.000w    181 calls
| | | DFH: compute_J                :      0.267u      0.000s      0.139w    181 calls
| | | DFH: compute_K                :      1.567u      0.000s      0.343w    181 calls
| JK: AO2USO                        :      0.000u      0.000s      0.000w    181 calls
HF: Form F                          :      0.000u      0.000s      0.003w    181 calls
HF: Form D                          :      0.017u      0.000s      0.002w    181 calls
HF: DIIS                            :      4.117u      0.233s      0.849w    178 calls
HF: Form C                          :      1.067u      0.000s      0.160w    178 calls
Grad: V T Perturb                   :      0.150u      0.000s      0.026w     16 calls
Grad: S                             :      0.033u      0.000s      0.008w     16 calls
Grad: JK                            :     12.450u      0.150s      1.913w     16 calls
| JKGrad: Amn                       :      3.917u      0.000s      0.593w     16 calls
| | Libint2ERI::Libint2ERI          :      0.467u      0.000s      0.071w     16 calls
| JKGrad: Awmn                      :      0.000u      0.000s      0.000w     16 calls
| JKGrad: AB                        :      2.950u      0.033s      0.446w     16 calls
| | Libint2ERI::Libint2ERI          :      0.017u      0.000s      0.004w     64 calls
| JKGrad: UV                        :      0.233u      0.017s      0.037w     16 calls
| JKGrad: ABx                       :      0.317u      0.017s      0.054w     16 calls
| | Libint2ERI::Libint2ERI          :      0.033u      0.000s      0.001w     16 calls
| JKGrad: Amnx                      :      4.783u      0.017s      0.731w     16 calls
| | Libint2ERI::Libint2ERI          :      0.467u      0.000s      0.071w     16 calls
Grad: XC                            :     18.850u      0.017s      2.829w     16 calls
| Properties                        :      6.595p                          25929 calls
| Functional                        :      1.336p                          25929 calls
| V_xc gradient                     :      3.239p                          25929 calls

**************************************************************************************

Host: sycamore

Timers On : Wed Apr 22 21:26:40 2026
Timers Off: Wed Apr 22 21:26:52 2026

Wall Time:       11.32 seconds

                                                       Time (seconds)
Module                                       User      System        Wall        Calls
V: Grid                             :      3.167u      0.083s      0.488w      5 calls
build grid                          :      1.633u      0.067s      0.251w      5 calls
post-process grid                   :      1.533u      0.017s      0.237w      5 calls
DFH: sparsity prep                  :      0.250u      0.017s      0.041w      5 calls
Libint2ERI::Libint2ERI              :      0.617u      0.017s      0.096w     65 calls
DFH: initialize()                   :      2.017u      0.100s      0.318w      5 calls
DFH: AO Construction                :      0.350u      0.017s      0.061w      5 calls
DFH: AO-Met. Contraction            :      0.433u      0.050s      0.071w      5 calls
HF: Form core H                     :      0.150u      0.000s      0.028w      5 calls
HF: Form S/X                        :      0.017u      0.000s      0.004w      5 calls
HF: Guess                           :      0.583u      0.050s      0.096w      5 calls
SAD Guess                           :      0.583u      0.050s      0.095w      2 calls
HF: Form G                          :     29.333u      0.067s      4.483w     63 calls
RV: Form V                          :     28.183u      0.000s      4.276w     63 calls
Properties                          :      6.854p                         109759 calls
Functional                          :      5.569p                         109759 calls
V_xc                                :      7.016p                         101688 calls
JK: D                               :      0.033u      0.000s      0.001w     63 calls
JK: USO2AO                          :      0.000u      0.000s      0.000w     63 calls
JK: JK                              :      1.100u      0.067s      0.203w     63 calls
DFH: compute_JK()                   :      1.083u      0.067s      0.202w     63 calls
DFH: Grabbing AOs                   :      0.000u      0.000s      0.000w     63 calls
DFH: compute_J                      :      0.067u      0.000s      0.048w     63 calls
DFH: compute_K                      :      0.583u      0.000s      0.118w     63 calls
JK: AO2USO                          :      0.000u      0.000s      0.000w     63 calls
HF: Form F                          :      0.000u      0.000s      0.001w     63 calls
HF: Form D                          :      0.000u      0.000s      0.001w     63 calls
HF: DIIS                            :      2.317u      0.033s      0.373w     61 calls
HF: Form C                          :      0.367u      0.000s      0.054w     61 calls
Grad: V T Perturb                   :      0.000u      0.000s      0.007w      5 calls
Grad: S                             :      0.050u      0.000s      0.002w      5 calls
Grad: JK                            :      3.817u      0.050s      0.583w      5 calls
JKGrad: Amn                         :      1.217u      0.000s      0.184w      5 calls
JKGrad: Awmn                        :      0.000u      0.000s      0.000w      5 calls
JKGrad: AB                          :      0.867u      0.017s      0.136w      5 calls
JKGrad: UV                          :      0.083u      0.017s      0.011w      5 calls
JKGrad: ABx                         :      0.117u      0.000s      0.016w      5 calls
JKGrad: Amnx                        :      1.450u      0.017s      0.218w      5 calls
Grad: XC                            :      5.783u      0.000s      0.868w      5 calls
V_xc gradient                       :      0.994p                           8071 calls

--------------------------------------------------------------------------------------
V: Grid                             :      3.167u      0.083s      0.488w      5 calls
| build grid                        :      1.633u      0.067s      0.251w      5 calls
| post-process grid                 :      1.533u      0.017s      0.237w      5 calls
DFH: sparsity prep                  :      0.250u      0.017s      0.041w      5 calls
| Libint2ERI::Libint2ERI            :      0.133u      0.000s      0.027w      5 calls
DFH: initialize()                   :      2.017u      0.100s      0.318w      5 calls
| Libint2ERI::Libint2ERI            :      0.167u      0.000s      0.025w     25 calls
| DFH: AO Construction              :      0.350u      0.017s      0.061w      5 calls
| DFH: AO-Met. Contraction          :      0.433u      0.050s      0.071w      5 calls
HF: Form core H                     :      0.150u      0.000s      0.028w      5 calls
HF: Form S/X                        :      0.017u      0.000s      0.004w      5 calls
HF: Guess                           :      0.583u      0.050s      0.096w      5 calls
| SAD Guess                         :      0.583u      0.050s      0.095w      2 calls
HF: Form G                          :     29.333u      0.067s      4.483w     63 calls
| RV: Form V                        :     28.183u      0.000s      4.276w     63 calls
| | Properties                      :      4.833p                         101688 calls
| | Functional                      :      5.153p                         101688 calls
| | V_xc                            :      7.016p                         101688 calls
| JK: D                             :      0.033u      0.000s      0.001w     63 calls
| JK: USO2AO                        :      0.000u      0.000s      0.000w     63 calls
| JK: JK                            :      1.100u      0.067s      0.203w     63 calls
| | DFH: compute_JK()               :      1.083u      0.067s      0.202w     63 calls
| | | DFH: Grabbing AOs             :      0.000u      0.000s      0.000w     63 calls
| | | DFH: compute_J                :      0.067u      0.000s      0.048w     63 calls
| | | DFH: compute_K                :      0.583u      0.000s      0.118w     63 calls
| JK: AO2USO                        :      0.000u      0.000s      0.000w     63 calls
HF: Form F                          :      0.000u      0.000s      0.001w     63 calls
HF: Form D                          :      0.000u      0.000s      0.001w     63 calls
HF: DIIS                            :      2.317u      0.033s      0.373w     61 calls
HF: Form C                          :      0.367u      0.000s      0.054w     61 calls
Grad: V T Perturb                   :      0.000u      0.000s      0.007w      5 calls
Grad: S                             :      0.050u      0.000s      0.002w      5 calls
Grad: JK                            :      3.817u      0.050s      0.583w      5 calls
| JKGrad: Amn                       :      1.217u      0.000s      0.184w      5 calls
| | Libint2ERI::Libint2ERI          :      0.167u      0.000s      0.022w      5 calls
| JKGrad: Awmn                      :      0.000u      0.000s      0.000w      5 calls
| JKGrad: AB                        :      0.867u      0.017s      0.136w      5 calls
| | Libint2ERI::Libint2ERI          :      0.000u      0.000s      0.001w     20 calls
| JKGrad: UV                        :      0.083u      0.017s      0.011w      5 calls
| JKGrad: ABx                       :      0.117u      0.000s      0.016w      5 calls
| | Libint2ERI::Libint2ERI          :      0.000u      0.000s      0.000w      5 calls
| JKGrad: Amnx                      :      1.450u      0.017s      0.218w      5 calls
| | Libint2ERI::Libint2ERI          :      0.150u      0.017s      0.021w      5 calls
Grad: XC                            :      5.783u      0.000s      0.868w      5 calls
| Properties                        :      2.021p                           8071 calls
| Functional                        :      0.416p                           8071 calls
| V_xc gradient                     :      0.994p                           8071 calls

**************************************************************************************

Host: sycamore

Timers On : Wed Apr 22 21:57:34 2026
Timers Off: Wed Apr 22 21:59:57 2026

Wall Time:      142.46 seconds

                                                       Time (seconds)
Module                                       User      System        Wall        Calls
V: Grid                             :     52.600u      0.333s      7.939w     67 calls
build grid                          :     27.167u      0.083s      4.093w     67 calls
post-process grid                   :     25.367u      0.250s      3.839w     67 calls
DFH: sparsity prep                  :      3.800u      0.033s      0.568w     67 calls
Libint2ERI::Libint2ERI              :      9.083u      0.083s      1.375w    871 calls
DFH: initialize()                   :     30.717u      0.533s      4.680w     67 calls
DFH: AO Construction                :      5.783u      0.000s      0.927w     67 calls
DFH: AO-Met. Contraction            :      7.317u      0.067s      1.046w     67 calls
HF: Form core H                     :      3.117u      0.050s      0.597w     67 calls
HF: Form S/X                        :      0.400u      0.000s      0.058w     67 calls
HF: Guess                           :      0.683u      0.117s      0.124w     67 calls
SAD Guess                           :      0.667u      0.117s      0.120w      2 calls
HF: Form G                          :    420.050u      0.167s     63.656w    739 calls
RV: Form V                          :    404.350u      0.050s     60.956w    739 calls
Properties                          :    101.601p                         1430562 calls
Functional                          :     76.159p                         1430562 calls
V_xc                                :    104.221p                         1311606 calls
JK: D                               :      0.233u      0.000s      0.013w    739 calls
JK: USO2AO                          :      0.000u      0.017s      0.002w    739 calls
JK: JK                              :     14.417u      0.083s      2.636w    739 calls
DFH: compute_JK()                   :     14.367u      0.083s      2.626w    739 calls
DFH: Grabbing AOs                   :      0.000u      0.000s      0.001w    739 calls
DFH: compute_J                      :      1.550u      0.000s      0.633w    739 calls
DFH: compute_K                      :      8.500u      0.067s      1.644w    739 calls
JK: AO2USO                          :      0.017u      0.000s      0.001w    739 calls
HF: Form F                          :      0.000u      0.000s      0.014w    739 calls
HF: Form D                          :      0.067u      0.000s      0.009w    739 calls
HF: DIIS                            :     12.367u      0.367s      1.987w    737 calls
HF: Form C                          :      4.700u      0.067s      0.694w    737 calls
Grad: V T Perturb                   :      0.367u      0.000s      0.119w     67 calls
Grad: S                             :      0.400u      0.000s      0.032w     67 calls
Grad: JK                            :     65.950u      2.333s     10.349w     67 calls
JKGrad: Amn                         :     21.500u      1.117s      3.382w     67 calls
JKGrad: Awmn                        :      0.000u      0.000s      0.000w     67 calls
JKGrad: AB                          :     14.500u      0.117s      2.204w     67 calls
JKGrad: UV                          :      1.117u      0.267s      0.189w     67 calls
JKGrad: ABx                         :      1.633u      0.033s      0.249w     67 calls
JKGrad: Amnx                        :     24.017u      0.667s      3.720w     67 calls
Grad: XC                            :     94.650u      0.017s     14.198w     67 calls
V_xc gradient                       :     16.532p                         118956 calls

--------------------------------------------------------------------------------------
V: Grid                             :     52.600u      0.333s      7.939w     67 calls
| build grid                        :     27.167u      0.083s      4.093w     67 calls
| post-process grid                 :     25.367u      0.250s      3.839w     67 calls
DFH: sparsity prep                  :      3.800u      0.033s      0.568w     67 calls
| Libint2ERI::Libint2ERI            :      2.400u      0.033s      0.367w     67 calls
DFH: initialize()                   :     30.717u      0.533s      4.680w     67 calls
| Libint2ERI::Libint2ERI            :      2.133u      0.017s      0.332w    335 calls
| DFH: AO Construction              :      5.783u      0.000s      0.927w     67 calls
| DFH: AO-Met. Contraction          :      7.317u      0.067s      1.046w     67 calls
HF: Form core H                     :      3.117u      0.050s      0.597w     67 calls
HF: Form S/X                        :      0.400u      0.000s      0.058w     67 calls
HF: Guess                           :      0.683u      0.117s      0.124w     67 calls
| SAD Guess                         :      0.667u      0.117s      0.120w      2 calls
HF: Form G                          :    420.050u      0.167s     63.656w    739 calls
| RV: Form V                        :    404.350u      0.050s     60.956w    739 calls
| | Properties                      :     68.560p                         1311606 calls
| | Functional                      :     69.607p                         1311606 calls
| | V_xc                            :    104.221p                         1311606 calls
| JK: D                             :      0.233u      0.000s      0.013w    739 calls
| JK: USO2AO                        :      0.000u      0.017s      0.002w    739 calls
| JK: JK                            :     14.417u      0.083s      2.636w    739 calls
| | DFH: compute_JK()               :     14.367u      0.083s      2.626w    739 calls
| | | DFH: Grabbing AOs             :      0.000u      0.000s      0.001w    739 calls
| | | DFH: compute_J                :      1.550u      0.000s      0.633w    739 calls
| | | DFH: compute_K                :      8.500u      0.067s      1.644w    739 calls
| JK: AO2USO                        :      0.017u      0.000s      0.001w    739 calls
HF: Form F                          :      0.000u      0.000s      0.014w    739 calls
HF: Form D                          :      0.067u      0.000s      0.009w    739 calls
HF: DIIS                            :     12.367u      0.367s      1.987w    737 calls
HF: Form C                          :      4.700u      0.067s      0.694w    737 calls
Grad: V T Perturb                   :      0.367u      0.000s      0.119w     67 calls
Grad: S                             :      0.400u      0.000s      0.032w     67 calls
Grad: JK                            :     65.950u      2.333s     10.349w     67 calls
| JKGrad: Amn                       :     21.500u      1.117s      3.382w     67 calls
| | Libint2ERI::Libint2ERI          :      2.233u      0.017s      0.330w     67 calls
| JKGrad: Awmn                      :      0.000u      0.000s      0.000w     67 calls
| JKGrad: AB                        :     14.500u      0.117s      2.204w     67 calls
| | Libint2ERI::Libint2ERI          :      0.133u      0.000s      0.017w    268 calls
| JKGrad: UV                        :      1.117u      0.267s      0.189w     67 calls
| JKGrad: ABx                       :      1.633u      0.033s      0.249w     67 calls
| | Libint2ERI::Libint2ERI          :      0.000u      0.000s      0.006w     67 calls
| JKGrad: Amnx                      :     24.017u      0.667s      3.720w     67 calls
| | Libint2ERI::Libint2ERI          :      2.183u      0.017s      0.323w     67 calls
Grad: XC                            :     94.650u      0.017s     14.198w     67 calls
| Properties                        :     33.041p                         118956 calls
| Functional                        :      6.551p                         118956 calls
| V_xc gradient                     :     16.532p                         118956 calls

**************************************************************************************

Host: sycamore

Timers On : Thu Apr 23 16:07:14 2026
Timers Off: Thu Apr 23 16:07:21 2026

Wall Time:        6.30 seconds

                                                       Time (seconds)
Module                                       User      System        Wall        Calls
V: Grid                             :      5.617u      0.000s      0.409w      4 calls
build grid                          :      4.533u      0.000s      0.237w      4 calls
post-process grid                   :      1.083u      0.000s      0.171w      4 calls
DFH: sparsity prep                  :      0.267u      0.017s      0.044w      4 calls
Libint2ERI::Libint2ERI              :      0.417u      0.033s      0.084w     52 calls
DFH: initialize()                   :      1.417u      0.100s      0.240w      4 calls
DFH: AO Construction                :      0.250u      0.017s      0.046w      4 calls
DFH: AO-Met. Contraction            :      0.300u      0.067s      0.051w      4 calls
HF: Form core H                     :      0.133u      0.000s      0.030w      4 calls
HF: Form S/X                        :      0.033u      0.000s      0.003w      4 calls
HF: Guess                           :      0.317u      0.050s      0.058w      4 calls
SAD Guess                           :      0.300u      0.050s      0.057w      1 calls
HF: Form G                          :     18.650u      0.000s      2.998w     46 calls
RV: Form V                          :     17.783u      0.000s      2.852w     46 calls
Properties                          :      4.712p                          80732 calls
Functional                          :      3.711p                          80732 calls
V_xc                                :      4.667p                          74274 calls
JK: D                               :      0.000u      0.000s      0.001w     46 calls
JK: USO2AO                          :      0.000u      0.000s      0.000w     46 calls
JK: JK                              :      0.817u      0.000s      0.143w     46 calls
DFH: compute_JK()                   :      0.817u      0.000s      0.142w     46 calls
DFH: Grabbing AOs                   :      0.000u      0.000s      0.000w     46 calls
DFH: compute_J                      :      0.100u      0.000s      0.036w     46 calls
DFH: compute_K                      :      0.333u      0.000s      0.080w     46 calls
JK: AO2USO                          :      0.000u      0.000s      0.000w     46 calls
HF: Form F                          :      0.000u      0.000s      0.001w     46 calls
HF: Form D                          :      0.000u      0.000s      0.000w     46 calls
HF: DIIS                            :      1.983u      0.033s      0.477w     45 calls
HF: Form C                          :      0.200u      0.000s      0.036w     45 calls
Grad: V T Perturb                   :      0.000u      0.000s      0.007w      4 calls
Grad: S                             :      0.017u      0.000s      0.002w      4 calls
Grad: JK                            :      2.700u      0.033s     -1.418w      4 calls
JKGrad: Amn                         :      0.833u      0.000s      0.135w      4 calls
JKGrad: Awmn                        :      0.000u      0.000s      0.000w      4 calls
JKGrad: AB                          :      0.650u      0.000s     -1.762w      4 calls
JKGrad: UV                          :      0.033u      0.000s      0.008w      4 calls
JKGrad: ABx                         :      0.083u      0.000s      0.013w      4 calls
JKGrad: Amnx                        :      1.000u      0.033s      0.177w      4 calls
Grad: XC                            :      3.933u      0.000s      0.626w      4 calls
V_xc gradient                       :      0.729p                           6458 calls

--------------------------------------------------------------------------------------
V: Grid                             :      5.617u      0.000s      0.409w      4 calls
| build grid                        :      4.533u      0.000s      0.237w      4 calls
| post-process grid                 :      1.083u      0.000s      0.171w      4 calls
DFH: sparsity prep                  :      0.267u      0.017s      0.044w      4 calls
| Libint2ERI::Libint2ERI            :      0.167u      0.017s      0.034w      4 calls
DFH: initialize()                   :      1.417u      0.100s      0.240w      4 calls
| Libint2ERI::Libint2ERI            :      0.067u      0.000s      0.016w     20 calls
| DFH: AO Construction              :      0.250u      0.017s      0.046w      4 calls
| DFH: AO-Met. Contraction          :      0.300u      0.067s      0.051w      4 calls
HF: Form core H                     :      0.133u      0.000s      0.030w      4 calls
HF: Form S/X                        :      0.033u      0.000s      0.003w      4 calls
HF: Guess                           :      0.317u      0.050s      0.058w      4 calls
| SAD Guess                         :      0.300u      0.050s      0.057w      1 calls
HF: Form G                          :     18.650u      0.000s      2.998w     46 calls
| RV: Form V                        :     17.783u      0.000s      2.852w     46 calls
| | Properties                      :      3.270p                          74274 calls
| | Functional                      :      3.408p                          74274 calls
| | V_xc                            :      4.667p                          74274 calls
| JK: D                             :      0.000u      0.000s      0.001w     46 calls
| JK: USO2AO                        :      0.000u      0.000s      0.000w     46 calls
| JK: JK                            :      0.817u      0.000s      0.143w     46 calls
| | DFH: compute_JK()               :      0.817u      0.000s      0.142w     46 calls
| | | DFH: Grabbing AOs             :      0.000u      0.000s      0.000w     46 calls
| | | DFH: compute_J                :      0.100u      0.000s      0.036w     46 calls
| | | DFH: compute_K                :      0.333u      0.000s      0.080w     46 calls
| JK: AO2USO                        :      0.000u      0.000s      0.000w     46 calls
HF: Form F                          :      0.000u      0.000s      0.001w     46 calls
HF: Form D                          :      0.000u      0.000s      0.000w     46 calls
HF: DIIS                            :      1.983u      0.033s      0.477w     45 calls
HF: Form C                          :      0.200u      0.000s      0.036w     45 calls
Grad: V T Perturb                   :      0.000u      0.000s      0.007w      4 calls
Grad: S                             :      0.017u      0.000s      0.002w      4 calls
Grad: JK                            :      2.700u      0.033s     -1.418w      4 calls
| JKGrad: Amn                       :      0.833u      0.000s      0.135w      4 calls
| | Libint2ERI::Libint2ERI          :      0.100u      0.000s      0.016w      4 calls
| JKGrad: Awmn                      :      0.000u      0.000s      0.000w      4 calls
| JKGrad: AB                        :      0.650u      0.000s     -1.762w      4 calls
| | Libint2ERI::Libint2ERI          :      0.000u      0.000s      0.001w     16 calls
| JKGrad: UV                        :      0.033u      0.000s      0.008w      4 calls
| JKGrad: ABx                       :      0.083u      0.000s      0.013w      4 calls
| | Libint2ERI::Libint2ERI          :      0.000u      0.000s      0.000w      4 calls
| JKGrad: Amnx                      :      1.000u      0.033s      0.177w      4 calls
| | Libint2ERI::Libint2ERI          :      0.083u      0.017s      0.016w      4 calls
Grad: XC                            :      3.933u      0.000s      0.626w      4 calls
| Properties                        :      1.442p                           6458 calls
| Functional                        :      0.303p                           6458 calls
| V_xc gradient                     :      0.729p                           6458 calls

**************************************************************************************

Host: sycamore

Timers On : Thu Apr 23 16:13:40 2026
Timers Off: Thu Apr 23 16:13:48 2026

Wall Time:        8.15 seconds

                                                       Time (seconds)
Module                                       User      System        Wall        Calls
V: Grid                             :      5.667u      0.000s      0.401w      4 calls
build grid                          :      4.617u      0.000s      0.230w      4 calls
post-process grid                   :      1.050u      0.000s      0.170w      4 calls
DFH: sparsity prep                  :      0.267u      0.017s      0.044w      4 calls
Libint2ERI::Libint2ERI              :      0.433u      0.033s      0.083w     52 calls
DFH: initialize()                   :      1.400u      0.083s      0.245w      4 calls
DFH: AO Construction                :      0.267u      0.033s      0.045w      4 calls
DFH: AO-Met. Contraction            :      0.317u      0.017s      0.052w      4 calls
HF: Form core H                     :      0.050u      0.017s      0.012w      4 calls
HF: Form S/X                        :      0.017u      0.000s      0.003w      4 calls
HF: Guess                           :      0.317u      0.033s      0.056w      4 calls
SAD Guess                           :      0.300u      0.033s      0.056w      1 calls
HF: Form G                          :     18.783u      0.000s      3.034w     46 calls
RV: Form V                          :     17.833u      0.000s      2.885w     46 calls
Properties                          :      4.679p                          80754 calls
Functional                          :      3.748p                          80754 calls
V_xc                                :      4.769p                          74294 calls
JK: D                               :      0.000u      0.000s      0.001w     46 calls
JK: USO2AO                          :      0.000u      0.000s      0.000w     46 calls
JK: JK                              :      0.933u      0.000s      0.146w     46 calls
DFH: compute_JK()                   :      0.917u      0.000s      0.145w     46 calls
DFH: Grabbing AOs                   :      0.000u      0.000s      0.000w     46 calls
DFH: compute_J                      :      0.067u      0.000s      0.037w     46 calls
DFH: compute_K                      :      0.433u      0.000s      0.081w     46 calls
JK: AO2USO                          :      0.000u      0.000s      0.000w     46 calls
HF: Form F                          :      0.000u      0.000s      0.002w     46 calls
HF: Form D                          :      0.000u      0.000s      0.001w     46 calls
HF: DIIS                            :      1.983u      0.083s      0.498w     45 calls
HF: Form C                          :      0.217u      0.000s      0.036w     45 calls
Grad: V T Perturb                   :      0.033u      0.000s      0.010w      4 calls
Grad: S                             :      0.017u      0.000s      0.002w      4 calls
Grad: JK                            :      2.750u      0.000s      0.454w      4 calls
JKGrad: Amn                         :      0.900u      0.000s      0.139w      4 calls
JKGrad: Awmn                        :      0.000u      0.000s      0.000w      4 calls
JKGrad: AB                          :      0.633u      0.000s      0.104w      4 calls
JKGrad: UV                          :      0.050u      0.000s      0.009w      4 calls
JKGrad: ABx                         :      0.083u      0.000s      0.014w      4 calls
JKGrad: Amnx                        :      1.017u      0.000s      0.177w      4 calls
Grad: XC                            :      3.883u      0.000s      0.622w      4 calls
V_xc gradient                       :      0.736p                           6460 calls

--------------------------------------------------------------------------------------
V: Grid                             :      5.667u      0.000s      0.401w      4 calls
| build grid                        :      4.617u      0.000s      0.230w      4 calls
| post-process grid                 :      1.050u      0.000s      0.170w      4 calls
DFH: sparsity prep                  :      0.267u      0.017s      0.044w      4 calls
| Libint2ERI::Libint2ERI            :      0.167u      0.017s      0.034w      4 calls
DFH: initialize()                   :      1.400u      0.083s      0.245w      4 calls
| Libint2ERI::Libint2ERI            :      0.067u      0.017s      0.016w     20 calls
| DFH: AO Construction              :      0.267u      0.033s      0.045w      4 calls
| DFH: AO-Met. Contraction          :      0.317u      0.017s      0.052w      4 calls
HF: Form core H                     :      0.050u      0.017s      0.012w      4 calls
HF: Form S/X                        :      0.017u      0.000s      0.003w      4 calls
HF: Guess                           :      0.317u      0.033s      0.056w      4 calls
| SAD Guess                         :      0.300u      0.033s      0.056w      1 calls
HF: Form G                          :     18.783u      0.000s      3.034w     46 calls
| RV: Form V                        :     17.833u      0.000s      2.885w     46 calls
| | Properties                      :      3.266p                          74294 calls
| | Functional                      :      3.440p                          74294 calls
| | V_xc                            :      4.769p                          74294 calls
| JK: D                             :      0.000u      0.000s      0.001w     46 calls
| JK: USO2AO                        :      0.000u      0.000s      0.000w     46 calls
| JK: JK                            :      0.933u      0.000s      0.146w     46 calls
| | DFH: compute_JK()               :      0.917u      0.000s      0.145w     46 calls
| | | DFH: Grabbing AOs             :      0.000u      0.000s      0.000w     46 calls
| | | DFH: compute_J                :      0.067u      0.000s      0.037w     46 calls
| | | DFH: compute_K                :      0.433u      0.000s      0.081w     46 calls
| JK: AO2USO                        :      0.000u      0.000s      0.000w     46 calls
HF: Form F                          :      0.000u      0.000s      0.002w     46 calls
HF: Form D                          :      0.000u      0.000s      0.001w     46 calls
HF: DIIS                            :      1.983u      0.083s      0.498w     45 calls
HF: Form C                          :      0.217u      0.000s      0.036w     45 calls
Grad: V T Perturb                   :      0.033u      0.000s      0.010w      4 calls
Grad: S                             :      0.017u      0.000s      0.002w      4 calls
Grad: JK                            :      2.750u      0.000s      0.454w      4 calls
| JKGrad: Amn                       :      0.900u      0.000s      0.139w      4 calls
| | Libint2ERI::Libint2ERI          :      0.083u      0.000s      0.016w      4 calls
| JKGrad: Awmn                      :      0.000u      0.000s      0.000w      4 calls
| JKGrad: AB                        :      0.633u      0.000s      0.104w      4 calls
| | Libint2ERI::Libint2ERI          :      0.000u      0.000s      0.001w     16 calls
| JKGrad: UV                        :      0.050u      0.000s      0.009w      4 calls
| JKGrad: ABx                       :      0.083u      0.000s      0.014w      4 calls
| | Libint2ERI::Libint2ERI          :      0.000u      0.000s      0.000w      4 calls
| JKGrad: Amnx                      :      1.017u      0.000s      0.177w      4 calls
| | Libint2ERI::Libint2ERI          :      0.117u      0.000s      0.016w      4 calls
Grad: XC                            :      3.883u      0.000s      0.622w      4 calls
| Properties                        :      1.413p                           6460 calls
| Functional                        :      0.308p                           6460 calls
| V_xc gradient                     :      0.736p                           6460 calls

**************************************************************************************

Host: sycamore

Timers On : Thu Apr 23 16:16:17 2026
Timers Off: Thu Apr 23 16:16:18 2026

Wall Time:        0.45 seconds

                                                       Time (seconds)
Module                                       User      System        Wall        Calls

--------------------------------------------------------------------------------------

**************************************************************************************

Host: sycamore

Timers On : Thu Apr 23 16:17:41 2026
Timers Off: Thu Apr 23 16:17:41 2026

Wall Time:        0.63 seconds

                                                       Time (seconds)
Module                                       User      System        Wall        Calls

--------------------------------------------------------------------------------------

**************************************************************************************

Host: sycamore

Timers On : Thu Apr 23 16:19:04 2026
Timers Off: Thu Apr 23 16:19:04 2026

Wall Time:        0.45 seconds

                                                       Time (seconds)
Module                                       User      System        Wall        Calls

--------------------------------------------------------------------------------------

**************************************************************************************

Host: sycamore

Timers On : Thu Apr 23 16:19:10 2026
Timers Off: Thu Apr 23 16:19:11 2026

Wall Time:        0.41 seconds

                                                       Time (seconds)
Module                                       User      System        Wall        Calls

--------------------------------------------------------------------------------------

**************************************************************************************

Host: sycamore

Timers On : Thu Apr 23 16:20:17 2026
Timers Off: Thu Apr 23 16:20:18 2026

Wall Time:        0.77 seconds

                                                       Time (seconds)
Module                                       User      System        Wall        Calls

--------------------------------------------------------------------------------------

**************************************************************************************

Host: sycamore

Timers On : Thu Apr 23 16:20:51 2026
Timers Off: Thu Apr 23 16:20:51 2026

Wall Time:        0.44 seconds

                                                       Time (seconds)
Module                                       User      System        Wall        Calls

--------------------------------------------------------------------------------------

**************************************************************************************

Host: sycamore

Timers On : Thu Apr 23 19:05:38 2026
Timers Off: Thu Apr 23 19:05:38 2026

Wall Time:        0.47 seconds

                                                       Time (seconds)
Module                                       User      System        Wall        Calls

--------------------------------------------------------------------------------------

**************************************************************************************

Host: sycamore

Timers On : Thu Apr 23 19:08:07 2026
Timers Off: Thu Apr 23 19:08:25 2026

Wall Time:       17.45 seconds

                                                       Time (seconds)
Module                                       User      System        Wall        Calls
V: Grid                             :     17.750u      0.050s      1.036w     10 calls
build grid                          :     14.817u      0.017s      0.598w     10 calls
post-process grid                   :      2.933u      0.033s      0.437w     10 calls
DFH: sparsity prep                  :      0.533u      0.000s      0.081w     10 calls
Libint2ERI::Libint2ERI              :      1.133u      0.017s      0.178w    130 calls
DFH: initialize()                   :      3.567u      0.167s      0.573w     10 calls
DFH: AO Construction                :      0.650u      0.017s      0.111w     10 calls
DFH: AO-Met. Contraction            :      0.800u      0.083s      0.129w     10 calls
HF: Form core H                     :      0.267u      0.000s      0.052w     10 calls
HF: Form S/X                        :      0.033u      0.000s      0.007w     10 calls
HF: Guess                           :      0.550u      0.067s      0.091w     10 calls
SAD Guess                           :      0.550u      0.067s      0.090w      2 calls
HF: Form G                          :     47.983u      0.033s      7.290w    111 calls
RV: Form V                          :     45.850u      0.017s      6.939w    111 calls
Properties                          :     11.568p                         208472 calls
Functional                          :      9.017p                         208472 calls
V_xc                                :     11.455p                         191219 calls
JK: D                               :      0.017u      0.000s      0.001w    111 calls
JK: USO2AO                          :      0.000u      0.000s      0.000w    111 calls
JK: JK                              :      1.867u      0.017s      0.343w    111 calls
DFH: compute_JK()                   :      1.833u      0.017s      0.341w    111 calls
DFH: Grabbing AOs                   :      0.000u      0.000s      0.000w    111 calls
DFH: compute_J                      :      0.167u      0.000s      0.088w    111 calls
DFH: compute_K                      :      0.967u      0.000s      0.201w    111 calls
JK: AO2USO                          :      0.000u      0.000s      0.000w    111 calls
HF: Form F                          :      0.017u      0.000s      0.003w    111 calls
HF: Form D                          :      0.017u      0.000s      0.001w    111 calls
HF: DIIS                            :      2.817u      0.183s      0.587w    109 calls
HF: Form C                          :      0.483u      0.000s      0.083w    109 calls
Grad: V T Perturb                   :      0.017u      0.000s      0.016w     10 calls
Grad: S                             :      0.083u      0.000s      0.005w     10 calls
Grad: JK                            :      7.250u      0.133s      1.126w     10 calls
JKGrad: Amn                         :      2.283u      0.067s      0.357w     10 calls
JKGrad: Awmn                        :      0.000u      0.000s      0.000w     10 calls
JKGrad: AB                          :      1.683u      0.000s      0.252w     10 calls
JKGrad: UV                          :      0.150u      0.017s      0.022w     10 calls
JKGrad: ABx                         :      0.183u      0.000s      0.032w     10 calls
JKGrad: Amnx                        :      2.767u      0.033s      0.435w     10 calls
Grad: XC                            :     10.533u      0.000s      1.581w     10 calls
V_xc gradient                       :      1.796p                          17253 calls

--------------------------------------------------------------------------------------
V: Grid                             :     17.750u      0.050s      1.036w     10 calls
| build grid                        :     14.817u      0.017s      0.598w     10 calls
| post-process grid                 :      2.933u      0.033s      0.437w     10 calls
DFH: sparsity prep                  :      0.533u      0.000s      0.081w     10 calls
| Libint2ERI::Libint2ERI            :      0.383u      0.000s      0.058w     10 calls
DFH: initialize()                   :      3.567u      0.167s      0.573w     10 calls
| Libint2ERI::Libint2ERI            :      0.233u      0.000s      0.040w     50 calls
| DFH: AO Construction              :      0.650u      0.017s      0.111w     10 calls
| DFH: AO-Met. Contraction          :      0.800u      0.083s      0.129w     10 calls
HF: Form core H                     :      0.267u      0.000s      0.052w     10 calls
HF: Form S/X                        :      0.033u      0.000s      0.007w     10 calls
HF: Guess                           :      0.550u      0.067s      0.091w     10 calls
| SAD Guess                         :      0.550u      0.067s      0.090w      2 calls
HF: Form G                          :     47.983u      0.033s      7.290w    111 calls
| RV: Form V                        :     45.850u      0.017s      6.939w    111 calls
| | Properties                      :      7.875p                         191219 calls
| | Functional                      :      8.264p                         191219 calls
| | V_xc                            :     11.455p                         191219 calls
| JK: D                             :      0.017u      0.000s      0.001w    111 calls
| JK: USO2AO                        :      0.000u      0.000s      0.000w    111 calls
| JK: JK                            :      1.867u      0.017s      0.343w    111 calls
| | DFH: compute_JK()               :      1.833u      0.017s      0.341w    111 calls
| | | DFH: Grabbing AOs             :      0.000u      0.000s      0.000w    111 calls
| | | DFH: compute_J                :      0.167u      0.000s      0.088w    111 calls
| | | DFH: compute_K                :      0.967u      0.000s      0.201w    111 calls
| JK: AO2USO                        :      0.000u      0.000s      0.000w    111 calls
HF: Form F                          :      0.017u      0.000s      0.003w    111 calls
HF: Form D                          :      0.017u      0.000s      0.001w    111 calls
HF: DIIS                            :      2.817u      0.183s      0.587w    109 calls
HF: Form C                          :      0.483u      0.000s      0.083w    109 calls
Grad: V T Perturb                   :      0.017u      0.000s      0.016w     10 calls
Grad: S                             :      0.083u      0.000s      0.005w     10 calls
Grad: JK                            :      7.250u      0.133s      1.126w     10 calls
| JKGrad: Amn                       :      2.283u      0.067s      0.357w     10 calls
| | Libint2ERI::Libint2ERI          :      0.267u      0.017s      0.039w     10 calls
| JKGrad: Awmn                      :      0.000u      0.000s      0.000w     10 calls
| JKGrad: AB                        :      1.683u      0.000s      0.252w     10 calls
| | Libint2ERI::Libint2ERI          :      0.000u      0.000s      0.002w     40 calls
| JKGrad: UV                        :      0.150u      0.017s      0.022w     10 calls
| JKGrad: ABx                       :      0.183u      0.000s      0.032w     10 calls
| | Libint2ERI::Libint2ERI          :      0.000u      0.000s      0.001w     10 calls
| JKGrad: Amnx                      :      2.767u      0.033s      0.435w     10 calls
| | Libint2ERI::Libint2ERI          :      0.250u      0.000s      0.039w     10 calls
Grad: XC                            :     10.533u      0.000s      1.581w     10 calls
| Properties                        :      3.693p                          17253 calls
| Functional                        :      0.752p                          17253 calls
| V_xc gradient                     :      1.796p                          17253 calls

**************************************************************************************

Host: sycamore

Timers On : Thu Apr 23 19:15:05 2026
Timers Off: Thu Apr 23 19:17:39 2026

Wall Time:      154.47 seconds

                                                       Time (seconds)
Module                                       User      System        Wall        Calls
V: Grid                             :     60.317u      0.183s      6.318w     71 calls
build grid                          :     40.633u      0.067s      3.371w     71 calls
post-process grid                   :     19.450u      0.117s      2.939w     71 calls
DFH: sparsity prep                  :      3.383u      0.100s      0.517w     71 calls
Libint2ERI::Libint2ERI              :      7.900u      0.117s      1.245w    923 calls
DFH: initialize()                   :     35.383u      1.867s      5.621w     71 calls
DFH: AO Construction                :      6.467u      0.050s      1.033w     71 calls
DFH: AO-Met. Contraction            :     10.517u      1.500s      1.761w     71 calls
HF: Form core H                     :      1.133u      0.067s      0.176w     71 calls
HF: Form S/X                        :      0.300u      0.050s      0.062w     71 calls
HF: Guess                           :     14.700u      0.267s      2.239w     71 calls
SAD Guess                           :     14.333u      0.267s      2.195w     58 calls
HF: Form G                          :    587.117u      0.250s     88.375w   1050 calls
RV: Form V                          :    549.417u      0.067s     83.068w   1050 calls
Properties                          :    130.723p                         1847861 calls
Functional                          :     81.447p                         1847861 calls
V_xc                                :    154.169p                         1730602 calls
JK: D                               :      2.133u      0.000s      0.017w   1050 calls
JK: USO2AO                          :      0.000u      0.000s      0.003w   1050 calls
JK: JK                              :     29.650u      0.183s      5.219w   1050 calls
DFH: compute_JK()                   :     29.300u      0.183s      5.201w   1050 calls
DFH: Grabbing AOs                   :      0.000u      0.000s      0.001w   1050 calls
DFH: compute_J                      :      4.183u      0.000s      1.389w   1050 calls
DFH: compute_K                      :     18.650u      0.117s      3.223w   1050 calls
JK: AO2USO                          :      0.400u      0.000s      0.001w   1050 calls
HF: Form F                          :      0.150u      0.000s      0.021w   1050 calls
HF: Form D                          :      0.150u      0.000s      0.017w   1050 calls
HF: DIIS                            :     19.917u      0.600s      3.109w    992 calls
HF: Form C                          :      6.867u      0.067s      1.024w    992 calls
Grad: V T Perturb                   :      0.433u      0.000s      0.111w     71 calls
Grad: S                             :      0.467u      0.000s      0.032w     71 calls
Grad: JK                            :     74.817u      3.900s     11.861w     71 calls
JKGrad: Amn                         :     26.067u      1.783s      4.171w     71 calls
JKGrad: Awmn                        :      0.000u      0.000s      0.000w     71 calls
JKGrad: AB                          :     15.383u      0.167s      2.316w     71 calls
JKGrad: UV                          :      1.183u      0.083s      0.190w     71 calls
JKGrad: ABx                         :      1.400u      0.083s      0.244w     71 calls
JKGrad: Amnx                        :     29.783u      1.750s      4.729w     71 calls
Grad: XC                            :     89.550u      0.033s     13.434w     71 calls
V_xc gradient                       :     17.378p                         117259 calls

--------------------------------------------------------------------------------------
V: Grid                             :     60.317u      0.183s      6.318w     71 calls
| build grid                        :     40.633u      0.067s      3.371w     71 calls
| post-process grid                 :     19.450u      0.117s      2.939w     71 calls
DFH: sparsity prep                  :      3.383u      0.100s      0.517w     71 calls
| Libint2ERI::Libint2ERI            :      2.167u      0.050s      0.336w     71 calls
DFH: initialize()                   :     35.383u      1.867s      5.621w     71 calls
| Libint2ERI::Libint2ERI            :      1.850u      0.000s      0.301w    355 calls
| DFH: AO Construction              :      6.467u      0.050s      1.033w     71 calls
| DFH: AO-Met. Contraction          :     10.517u      1.500s      1.761w     71 calls
HF: Form core H                     :      1.133u      0.067s      0.176w     71 calls
HF: Form S/X                        :      0.300u      0.050s      0.062w     71 calls
HF: Guess                           :     14.700u      0.267s      2.239w     71 calls
| SAD Guess                         :     14.333u      0.267s      2.195w     58 calls
HF: Form G                          :    587.117u      0.250s     88.375w   1050 calls
| RV: Form V                        :    549.417u      0.067s     83.068w   1050 calls
| | Properties                      :    100.277p                         1730602 calls
| | Functional                      :     76.191p                         1730602 calls
| | V_xc                            :    154.169p                         1730602 calls
| JK: D                             :      2.133u      0.000s      0.017w   1050 calls
| JK: USO2AO                        :      0.000u      0.000s      0.003w   1050 calls
| JK: JK                            :     29.650u      0.183s      5.219w   1050 calls
| | DFH: compute_JK()               :     29.300u      0.183s      5.201w   1050 calls
| | | DFH: Grabbing AOs             :      0.000u      0.000s      0.001w   1050 calls
| | | DFH: compute_J                :      4.183u      0.000s      1.389w   1050 calls
| | | DFH: compute_K                :     18.650u      0.117s      3.223w   1050 calls
| JK: AO2USO                        :      0.400u      0.000s      0.001w   1050 calls
HF: Form F                          :      0.150u      0.000s      0.021w   1050 calls
HF: Form D                          :      0.150u      0.000s      0.017w   1050 calls
HF: DIIS                            :     19.917u      0.600s      3.109w    992 calls
HF: Form C                          :      6.867u      0.067s      1.024w    992 calls
Grad: V T Perturb                   :      0.433u      0.000s      0.111w     71 calls
Grad: S                             :      0.467u      0.000s      0.032w     71 calls
Grad: JK                            :     74.817u      3.900s     11.861w     71 calls
| JKGrad: Amn                       :     26.067u      1.783s      4.171w     71 calls
| | Libint2ERI::Libint2ERI          :      1.933u      0.017s      0.297w     71 calls
| JKGrad: Awmn                      :      0.000u      0.000s      0.000w     71 calls
| JKGrad: AB                        :     15.383u      0.167s      2.316w     71 calls
| | Libint2ERI::Libint2ERI          :      0.100u      0.000s      0.016w    284 calls
| JKGrad: UV                        :      1.183u      0.083s      0.190w     71 calls
| JKGrad: ABx                       :      1.400u      0.083s      0.244w     71 calls
| | Libint2ERI::Libint2ERI          :      0.033u      0.000s      0.005w     71 calls
| JKGrad: Amnx                      :     29.783u      1.750s      4.729w     71 calls
| | Libint2ERI::Libint2ERI          :      1.817u      0.050s      0.289w     71 calls
Grad: XC                            :     89.550u      0.033s     13.434w     71 calls
| Properties                        :     30.446p                         117259 calls
| Functional                        :      5.256p                         117259 calls
| V_xc gradient                     :     17.378p                         117259 calls

**************************************************************************************

Host: sycamore

Timers On : Thu Apr 23 19:23:23 2026
Timers Off: Thu Apr 23 19:25:57 2026

Wall Time:      153.63 seconds

                                                       Time (seconds)
Module                                       User      System        Wall        Calls
V: Grid                             :     56.767u      0.317s      6.333w     71 calls
build grid                          :     37.217u      0.033s      3.380w     71 calls
post-process grid                   :     19.350u      0.283s      2.945w     71 calls
DFH: sparsity prep                  :      3.400u      0.050s      0.514w     71 calls
Libint2ERI::Libint2ERI              :      8.417u      0.017s      1.242w    923 calls
DFH: initialize()                   :     35.300u      1.917s      5.592w     71 calls
DFH: AO Construction                :      6.583u      0.067s      1.036w     71 calls
DFH: AO-Met. Contraction            :     10.417u      1.383s      1.749w     71 calls
HF: Form core H                     :      0.983u      0.050s      0.189w     71 calls
HF: Form S/X                        :      0.417u      0.000s      0.064w     71 calls
HF: Guess                           :     14.700u      0.233s      2.229w     71 calls
SAD Guess                           :     14.433u      0.233s      2.186w     58 calls
HF: Form G                          :    583.583u      0.217s     87.995w   1050 calls
RV: Form V                          :    547.083u      0.067s     82.714w   1050 calls
Properties                          :    129.648p                         1847676 calls
Functional                          :     81.099p                         1847676 calls
V_xc                                :    153.987p                         1730427 calls
JK: D                               :      1.667u      0.000s      0.017w   1050 calls
JK: USO2AO                          :      0.000u      0.000s      0.003w   1050 calls
JK: JK                              :     30.050u      0.150s      5.194w   1050 calls
DFH: compute_JK()                   :     29.767u      0.150s      5.177w   1050 calls
DFH: Grabbing AOs                   :      0.033u      0.000s      0.001w   1050 calls
DFH: compute_J                      :      4.050u      0.067s      1.387w   1050 calls
DFH: compute_K                      :     18.817u      0.050s      3.203w   1050 calls
JK: AO2USO                          :      0.083u      0.000s      0.001w   1050 calls
HF: Form F                          :      0.117u      0.000s      0.023w   1050 calls
HF: Form D                          :      0.117u      0.017s      0.014w   1050 calls
HF: DIIS                            :     19.067u      0.717s      3.027w    992 calls
HF: Form C                          :      6.800u      0.017s      0.999w    992 calls
Grad: V T Perturb                   :      0.417u      0.000s      0.110w     71 calls
Grad: S                             :      0.350u      0.000s      0.031w     71 calls
Grad: JK                            :     75.167u      4.167s     11.908w     71 calls
JKGrad: Amn                         :     26.017u      1.900s      4.204w     71 calls
JKGrad: Awmn                        :      0.000u      0.000s      0.000w     71 calls
JKGrad: AB                          :     15.317u      0.117s      2.316w     71 calls
JKGrad: UV                          :      1.133u      0.167s      0.190w     71 calls
JKGrad: ABx                         :      1.683u      0.033s      0.243w     71 calls
JKGrad: Amnx                        :     29.900u      1.800s      4.757w     71 calls
Grad: XC                            :     89.033u      0.000s     13.362w     71 calls
V_xc gradient                       :     17.310p                         117249 calls

--------------------------------------------------------------------------------------
V: Grid                             :     56.767u      0.317s      6.333w     71 calls
| build grid                        :     37.217u      0.033s      3.380w     71 calls
| post-process grid                 :     19.350u      0.283s      2.945w     71 calls
DFH: sparsity prep                  :      3.400u      0.050s      0.514w     71 calls
| Libint2ERI::Libint2ERI            :      2.217u      0.017s      0.336w     71 calls
DFH: initialize()                   :     35.300u      1.917s      5.592w     71 calls
| Libint2ERI::Libint2ERI            :      2.083u      0.000s      0.297w    355 calls
| DFH: AO Construction              :      6.583u      0.067s      1.036w     71 calls
| DFH: AO-Met. Contraction          :     10.417u      1.383s      1.749w     71 calls
HF: Form core H                     :      0.983u      0.050s      0.189w     71 calls
HF: Form S/X                        :      0.417u      0.000s      0.064w     71 calls
HF: Guess                           :     14.700u      0.233s      2.229w     71 calls
| SAD Guess                         :     14.433u      0.233s      2.186w     58 calls
HF: Form G                          :    583.583u      0.217s     87.995w   1050 calls
| RV: Form V                        :    547.083u      0.067s     82.714w   1050 calls
| | Properties                      :     99.393p                         1730427 calls
| | Functional                      :     75.875p                         1730427 calls
| | V_xc                            :    153.987p                         1730427 calls
| JK: D                             :      1.667u      0.000s      0.017w   1050 calls
| JK: USO2AO                        :      0.000u      0.000s      0.003w   1050 calls
| JK: JK                            :     30.050u      0.150s      5.194w   1050 calls
| | DFH: compute_JK()               :     29.767u      0.150s      5.177w   1050 calls
| | | DFH: Grabbing AOs             :      0.033u      0.000s      0.001w   1050 calls
| | | DFH: compute_J                :      4.050u      0.067s      1.387w   1050 calls
| | | DFH: compute_K                :     18.817u      0.050s      3.203w   1050 calls
| JK: AO2USO                        :      0.083u      0.000s      0.001w   1050 calls
HF: Form F                          :      0.117u      0.000s      0.023w   1050 calls
HF: Form D                          :      0.117u      0.017s      0.014w   1050 calls
HF: DIIS                            :     19.067u      0.717s      3.027w    992 calls
HF: Form C                          :      6.800u      0.017s      0.999w    992 calls
Grad: V T Perturb                   :      0.417u      0.000s      0.110w     71 calls
Grad: S                             :      0.350u      0.000s      0.031w     71 calls
Grad: JK                            :     75.167u      4.167s     11.908w     71 calls
| JKGrad: Amn                       :     26.017u      1.900s      4.204w     71 calls
| | Libint2ERI::Libint2ERI          :      1.967u      0.000s      0.297w     71 calls
| JKGrad: Awmn                      :      0.000u      0.000s      0.000w     71 calls
| JKGrad: AB                        :     15.317u      0.117s      2.316w     71 calls
| | Libint2ERI::Libint2ERI          :      0.150u      0.000s      0.016w    284 calls
| JKGrad: UV                        :      1.133u      0.167s      0.190w     71 calls
| JKGrad: ABx                       :      1.683u      0.033s      0.243w     71 calls
| | Libint2ERI::Libint2ERI          :      0.033u      0.000s      0.005w     71 calls
| JKGrad: Amnx                      :     29.900u      1.800s      4.757w     71 calls
| | Libint2ERI::Libint2ERI          :      1.967u      0.000s      0.291w     71 calls
Grad: XC                            :     89.033u      0.000s     13.362w     71 calls
| Properties                        :     30.254p                         117249 calls
| Functional                        :      5.224p                         117249 calls
| V_xc gradient                     :     17.310p                         117249 calls

**************************************************************************************

Host: sycamore

Timers On : Thu Apr 23 19:32:54 2026
Timers Off: Thu Apr 23 19:35:14 2026

Wall Time:      140.51 seconds

                                                       Time (seconds)
Module                                       User      System        Wall        Calls
V: Grid                             :     55.467u      0.383s      5.793w     65 calls
build grid                          :     37.117u      0.100s      3.082w     65 calls
post-process grid                   :     17.783u      0.283s      2.704w     65 calls
DFH: sparsity prep                  :      2.983u      0.017s      0.468w     65 calls
Libint2ERI::Libint2ERI              :      7.533u      0.000s      1.127w    845 calls
DFH: initialize()                   :     32.067u      1.633s      5.073w     65 calls
DFH: AO Construction                :      5.917u      0.067s      0.938w     65 calls
DFH: AO-Met. Contraction            :      9.633u      1.250s      1.590w     65 calls
HF: Form core H                     :      1.000u      0.033s      0.189w     65 calls
HF: Form S/X                        :      0.483u      0.000s      0.057w     65 calls
HF: Guess                           :     12.967u      0.217s      1.978w     65 calls
SAD Guess                           :     12.683u      0.217s      1.939w     52 calls
HF: Form G                          :    529.233u      0.233s     79.839w    954 calls
RV: Form V                          :    496.333u      0.100s     75.082w    954 calls
Properties                          :    118.500p                         1680740 calls
Functional                          :     73.824p                         1680740 calls
V_xc                                :    139.205p                         1573312 calls
JK: D                               :      1.233u      0.017s      0.015w    954 calls
JK: USO2AO                          :      0.000u      0.000s      0.002w    954 calls
JK: JK                              :     27.467u      0.100s      4.676w    954 calls
DFH: compute_JK()                   :     27.217u      0.100s      4.661w    954 calls
DFH: Grabbing AOs                   :      0.000u      0.000s      0.001w    954 calls
DFH: compute_J                      :      3.600u      0.000s      1.230w    954 calls
DFH: compute_K                      :     17.233u      0.050s      2.898w    954 calls
JK: AO2USO                          :      0.217u      0.000s      0.001w    954 calls
HF: Form F                          :      0.017u      0.000s      0.017w    954 calls
HF: Form D                          :      0.217u      0.000s      0.011w    954 calls
HF: DIIS                            :     17.483u      0.867s      2.799w    902 calls
HF: Form C                          :      6.533u      0.017s      0.910w    902 calls
Grad: V T Perturb                   :      0.267u      0.000s      0.099w     65 calls
Grad: S                             :      0.367u      0.000s      0.029w     65 calls
Grad: JK                            :     68.217u      3.450s     10.769w     65 calls
JKGrad: Amn                         :     23.600u      1.517s      3.769w     65 calls
JKGrad: Awmn                        :      0.000u      0.000s      0.000w     65 calls
JKGrad: AB                          :     14.000u      0.133s      2.118w     65 calls
JKGrad: UV                          :      1.083u      0.150s      0.173w     65 calls
JKGrad: ABx                         :      1.283u      0.033s      0.220w     65 calls
JKGrad: Amnx                        :     27.167u      1.467s      4.294w     65 calls
Grad: XC                            :     81.783u      0.000s     12.266w     65 calls
V_xc gradient                       :     15.783p                         107428 calls

--------------------------------------------------------------------------------------
V: Grid                             :     55.467u      0.383s      5.793w     65 calls
| build grid                        :     37.117u      0.100s      3.082w     65 calls
| post-process grid                 :     17.783u      0.283s      2.704w     65 calls
DFH: sparsity prep                  :      2.983u      0.017s      0.468w     65 calls
| Libint2ERI::Libint2ERI            :      2.083u      0.000s      0.306w     65 calls
DFH: initialize()                   :     32.067u      1.633s      5.073w     65 calls
| Libint2ERI::Libint2ERI            :      1.717u      0.000s      0.269w    325 calls
| DFH: AO Construction              :      5.917u      0.067s      0.938w     65 calls
[...]
| | | DFH: compute_K                :      0.000u      0.000s      0.001w     22 calls
| JK: AO2USO                        :      0.000u      0.000s      0.000w     22 calls
HF: Form F                          :      0.000u      0.000s      0.000w     22 calls
HF: Form D                          :      0.017u      0.000s      0.000w     22 calls
HF: DIIS                            :      0.283u      0.067s      0.210w     20 calls
HF: Form C                          :      0.017u      0.000s      0.004w     20 calls
Grad: V T Perturb                   :      0.000u      0.000s      0.000w      1 calls
Grad: S                             :      0.000u      0.000s      0.000w      1 calls
Grad: JK                            :      0.033u      0.000s      0.018w      1 calls
| JKGrad: Amn                       :      0.017u      0.000s      0.005w      1 calls
| | Libint2ERI::Libint2ERI          :      0.017u      0.000s      0.003w      1 calls
| JKGrad: Awmn                      :      0.000u      0.000s      0.000w      1 calls
| JKGrad: AB                        :      0.000u      0.000s      0.002w      1 calls
| | Libint2ERI::Libint2ERI          :      0.000u      0.000s      0.000w      1 calls
| JKGrad: UV                        :      0.000u      0.000s      0.000w      1 calls
| JKGrad: ABx                       :      0.000u      0.000s      0.001w      1 calls
| | Libint2ERI::Libint2ERI          :      0.000u      0.000s      0.000w      1 calls
| JKGrad: Amnx                      :      0.017u      0.000s      0.008w      1 calls
| | Libint2ERI::Libint2ERI          :      0.000u      0.000s      0.003w      1 calls
Grad: XC                            :      0.000u      0.000s      0.000w      1 calls
Hess: XC                            :      0.000u      0.000s      0.000w      1 calls
Hess: V                             :      0.000u      0.000s      0.000w      1 calls
Hess: T                             :      0.000u      0.000s      0.000w      1 calls
Hess: S                             :      0.000u      0.000s      0.000w      1 calls
Hess: JK                            :      0.100u      0.017s      0.069w      1 calls
| Libint2ERI::Libint2ERI            :      0.000u      0.000s      0.003w      3 calls
Libint2ERI::Libint2ERI              :      0.000u      0.000s      0.002w      3 calls
JK: D                               :      0.000u      0.000s      0.000w     13 calls
JK: USO2AO                          :      0.000u      0.000s      0.000w     13 calls
JK: JK                              :      0.017u      0.000s      0.009w     13 calls
| DFH: compute_JK()                 :      0.017u      0.000s      0.009w     13 calls
| | DFH: Grabbing AOs               :      0.000u      0.000s      0.000w     13 calls
| | DFH: compute_J                  :      0.000u      0.000s      0.002w     13 calls
| | DFH: compute_K                  :      0.017u      0.000s      0.007w     13 calls
JK: AO2USO                          :      0.000u      0.000s      0.000w     13 calls

**************************************************************************************

Host: sycamore

Timers On : Fri Apr 24 09:58:39 2026
Timers Off: Fri Apr 24 09:58:39 2026

Wall Time:        0.45 seconds

                                                       Time (seconds)
Module                                       User      System        Wall        Calls

--------------------------------------------------------------------------------------

**************************************************************************************

Host: sycamore

Timers On : Fri Apr 24 09:59:43 2026
Timers Off: Fri Apr 24 09:59:44 2026

Wall Time:        1.27 seconds

                                                       Time (seconds)
Module                                       User      System        Wall        Calls
DFH: sparsity prep                  :      0.033u      0.017s      0.024w      3 calls
Libint2ERI::Libint2ERI              :      0.033u      0.033s      0.041w     19 calls
DFH: initialize()                   :      0.000u      0.033s      0.023w      3 calls
DFH: AO Construction                :      0.000u      0.000s      0.004w      3 calls
DFH: AO-Met. Contraction            :      0.000u      0.000s      0.001w      3 calls
HF: Form core H                     :      0.000u      0.000s      0.002w      2 calls
HF: Form S/X                        :      0.000u      0.000s      0.000w      2 calls
HF: Guess                           :      0.083u      0.000s      0.041w      2 calls
SAD Guess                           :      0.067u      0.000s      0.039w      2 calls
HF: Form G                          :      0.000u      0.000s      0.003w     22 calls
JK: D                               :      0.000u      0.000s      0.000w     35 calls
JK: USO2AO                          :      0.000u      0.000s      0.001w     35 calls
JK: JK                              :      0.033u      0.000s      0.011w     35 calls
DFH: compute_JK()                   :      0.033u      0.000s      0.011w     35 calls
DFH: Grabbing AOs                   :      0.000u      0.000s      0.000w     35 calls
DFH: compute_J                      :      0.000u      0.000s      0.002w     35 calls
DFH: compute_K                      :      0.033u      0.000s      0.008w     35 calls
JK: AO2USO                          :      0.000u      0.000s      0.000w     35 calls
HF: Form F                          :      0.000u      0.000s      0.000w     22 calls
HF: Form D                          :      0.000u      0.000s      0.000w     22 calls
HF: DIIS                            :      0.317u      0.033s      0.207w     20 calls
HF: Form C                          :      0.000u      0.000s      0.004w     20 calls
Grad: V T Perturb                   :      0.000u      0.000s      0.000w      1 calls
Grad: S                             :      0.000u      0.000s      0.000w      1 calls
Grad: JK                            :      0.017u      0.000s      0.018w      1 calls
JKGrad: Amn                         :      0.000u      0.000s      0.006w      1 calls
JKGrad: Awmn                        :      0.000u      0.000s      0.000w      1 calls
JKGrad: AB                          :      0.000u      0.000s      0.002w      1 calls
JKGrad: UV                          :      0.000u      0.000s      0.000w      1 calls
JKGrad: ABx                         :      0.000u      0.000s      0.001w      1 calls
JKGrad: Amnx                        :      0.017u      0.000s      0.008w      1 calls
Grad: XC                            :      0.000u      0.000s      0.000w      1 calls
Hess: XC                            :      0.000u      0.000s      0.000w      1 calls
Hess: V                             :      0.000u      0.000s      0.000w      1 calls
Hess: T                             :      0.000u      0.000s      0.000w      1 calls
Hess: S                             :      0.000u      0.000s      0.000w      1 calls
Hess: JK                            :      0.117u      0.000s      0.069w      1 calls

--------------------------------------------------------------------------------------
DFH: sparsity prep                  :      0.033u      0.017s      0.024w      3 calls
| Libint2ERI::Libint2ERI            :      0.017u      0.017s      0.021w      3 calls
DFH: initialize()                   :      0.000u      0.033s      0.023w      3 calls
| Libint2ERI::Libint2ERI            :      0.000u      0.017s      0.008w      6 calls
| DFH: AO Construction              :      0.000u      0.000s      0.004w      3 calls
| DFH: AO-Met. Contraction          :      0.000u      0.000s      0.001w      3 calls
HF: Form core H                     :      0.000u      0.000s      0.002w      2 calls
HF: Form S/X                        :      0.000u      0.000s      0.000w      2 calls
HF: Guess                           :      0.083u      0.000s      0.041w      2 calls
| SAD Guess                         :      0.067u      0.000s      0.039w      2 calls
HF: Form G                          :      0.000u      0.000s      0.003w     22 calls
| JK: D                             :      0.000u      0.000s      0.000w     22 calls
| JK: USO2AO                        :      0.000u      0.000s      0.001w     22 calls
| JK: JK                            :      0.000u      0.000s      0.002w     22 calls
| | DFH: compute_JK()               :      0.000u      0.000s      0.002w     22 calls
| | | DFH: Grabbing AOs             :      0.000u      0.000s      0.000w     22 calls
| | | DFH: compute_J                :      0.000u      0.000s      0.001w     22 calls
| | | DFH: compute_K                :      0.000u      0.000s      0.001w     22 calls
| JK: AO2USO                        :      0.000u      0.000s      0.000w     22 calls
HF: Form F                          :      0.000u      0.000s      0.000w     22 calls
HF: Form D                          :      0.000u      0.000s      0.000w     22 calls
HF: DIIS                            :      0.317u      0.033s      0.207w     20 calls
HF: Form C                          :      0.000u      0.000s      0.004w     20 calls
Grad: V T Perturb                   :      0.000u      0.000s      0.000w      1 calls
Grad: S                             :      0.000u      0.000s      0.000w      1 calls
Grad: JK                            :      0.017u      0.000s      0.018w      1 calls
| JKGrad: Amn                       :      0.000u      0.000s      0.006w      1 calls
| | Libint2ERI::Libint2ERI          :      0.000u      0.000s      0.003w      1 calls
| JKGrad: Awmn                      :      0.000u      0.000s      0.000w      1 calls
| JKGrad: AB                        :      0.000u      0.000s      0.002w      1 calls
| | Libint2ERI::Libint2ERI          :      0.000u      0.000s      0.000w      1 calls
| JKGrad: UV                        :      0.000u      0.000s      0.000w      1 calls
| JKGrad: ABx                       :      0.000u      0.000s      0.001w      1 calls
| | Libint2ERI::Libint2ERI          :      0.000u      0.000s      0.000w      1 calls
| JKGrad: Amnx                      :      0.017u      0.000s      0.008w      1 calls
| | Libint2ERI::Libint2ERI          :      0.000u      0.000s      0.003w      1 calls
Grad: XC                            :      0.000u      0.000s      0.000w      1 calls
Hess: XC                            :      0.000u      0.000s      0.000w      1 calls
Hess: V                             :      0.000u      0.000s      0.000w      1 calls
Hess: T                             :      0.000u      0.000s      0.000w      1 calls
Hess: S                             :      0.000u      0.000s      0.000w      1 calls
Hess: JK                            :      0.117u      0.000s      0.069w      1 calls
| Libint2ERI::Libint2ERI            :      0.017u      0.000s      0.003w      3 calls
Libint2ERI::Libint2ERI              :      0.000u      0.000s      0.002w      3 calls
JK: D                               :      0.000u      0.000s      0.000w     13 calls
JK: USO2AO                          :      0.000u      0.000s      0.000w     13 calls
JK: JK                              :      0.033u      0.000s      0.009w     13 calls
| DFH: compute_JK()                 :      0.033u      0.000s      0.009w     13 calls
| | DFH: Grabbing AOs               :      0.000u      0.000s      0.000w     13 calls
| | DFH: compute_J                  :      0.000u      0.000s      0.002w     13 calls
| | DFH: compute_K                  :      0.033u      0.000s      0.007w     13 calls
JK: AO2USO                          :      0.000u      0.000s      0.000w     13 calls

**************************************************************************************

Host: sycamore

Timers On : Fri Apr 24 10:05:48 2026
Timers Off: Fri Apr 24 10:05:49 2026

Wall Time:        1.12 seconds

                                                       Time (seconds)
Module                                       User      System        Wall        Calls
DFH: sparsity prep                  :      0.000u      0.017s      0.020w      3 calls
Libint2ERI::Libint2ERI              :      0.033u      0.017s      0.037w     19 calls
DFH: initialize()                   :      0.050u      0.000s      0.023w      3 calls
DFH: AO Construction                :      0.000u      0.000s      0.004w      3 calls
DFH: AO-Met. Contraction            :      0.000u      0.000s      0.001w      3 calls
HF: Form core H                     :      0.000u      0.000s      0.002w      2 calls
HF: Form S/X                        :      0.000u      0.000s      0.000w      2 calls
HF: Guess                           :      0.067u      0.033s      0.042w      2 calls
SAD Guess                           :      0.067u      0.033s      0.041w      2 calls
HF: Form G                          :      0.017u      0.000s      0.003w     22 calls
JK: D                               :      0.000u      0.000s      0.000w     35 calls
JK: USO2AO                          :      0.000u      0.000s      0.001w     35 calls
JK: JK                              :      0.017u      0.017s      0.011w     35 calls
DFH: compute_JK()                   :      0.017u      0.017s      0.011w     35 calls
DFH: Grabbing AOs                   :      0.000u      0.000s      0.000w     35 calls
DFH: compute_J                      :      0.017u      0.000s      0.002w     35 calls
DFH: compute_K                      :      0.000u      0.017s      0.008w     35 calls
JK: AO2USO                          :      0.000u      0.000s      0.000w     35 calls
HF: Form F                          :      0.000u      0.000s      0.000w     22 calls
HF: Form D                          :      0.000u      0.000s      0.000w     22 calls
HF: DIIS                            :      0.333u      0.017s      0.210w     20 calls
HF: Form C                          :      0.000u      0.000s      0.004w     20 calls
Grad: V T Perturb                   :      0.000u      0.000s      0.000w      1 calls
Grad: S                             :      0.000u      0.000s      0.000w      1 calls
Grad: JK                            :      0.017u      0.000s      0.018w      1 calls
JKGrad: Amn                         :      0.000u      0.000s      0.006w      1 calls
JKGrad: Awmn                        :      0.000u      0.000s      0.000w      1 calls
JKGrad: AB                          :      0.000u      0.000s      0.002w      1 calls
JKGrad: UV                          :      0.000u      0.000s      0.000w      1 calls
JKGrad: ABx                         :      0.000u      0.000s      0.001w      1 calls
JKGrad: Amnx                        :      0.017u      0.000s      0.008w      1 calls
Grad: XC                            :      0.000u      0.000s      0.000w      1 calls
Hess: XC                            :      0.000u      0.000s      0.000w      1 calls
Hess: V                             :      0.000u      0.000s      0.001w      1 calls
Hess: T                             :      0.000u      0.000s      0.000w      1 calls
Hess: S                             :      0.000u      0.000s      0.000w      1 calls
Hess: JK                            :      0.117u      0.000s      0.068w      1 calls

--------------------------------------------------------------------------------------
DFH: sparsity prep                  :      0.000u      0.017s      0.020w      3 calls
| Libint2ERI::Libint2ERI            :      0.000u      0.017s      0.017w      3 calls
DFH: initialize()                   :      0.050u      0.000s      0.023w      3 calls
| Libint2ERI::Libint2ERI            :      0.017u      0.000s      0.008w      6 calls
| DFH: AO Construction              :      0.000u      0.000s      0.004w      3 calls
| DFH: AO-Met. Contraction          :      0.000u      0.000s      0.001w      3 calls
HF: Form core H                     :      0.000u      0.000s      0.002w      2 calls
HF: Form S/X                        :      0.000u      0.000s      0.000w      2 calls
HF: Guess                           :      0.067u      0.033s      0.042w      2 calls
| SAD Guess                         :      0.067u      0.033s      0.041w      2 calls
HF: Form G                          :      0.017u      0.000s      0.003w     22 calls
| JK: D                             :      0.000u      0.000s      0.000w     22 calls
| JK: USO2AO                        :      0.000u      0.000s      0.000w     22 calls
| JK: JK                            :      0.000u      0.000s      0.002w     22 calls
| | DFH: compute_JK()               :      0.000u      0.000s      0.002w     22 calls
| | | DFH: Grabbing AOs             :      0.000u      0.000s      0.000w     22 calls
| | | DFH: compute_J                :      0.000u      0.000s      0.001w     22 calls
| | | DFH: compute_K                :      0.000u      0.000s      0.001w     22 calls
| JK: AO2USO                        :      0.000u      0.000s      0.000w     22 calls
HF: Form F                          :      0.000u      0.000s      0.000w     22 calls
HF: Form D                          :      0.000u      0.000s      0.000w     22 calls
HF: DIIS                            :      0.333u      0.017s      0.210w     20 calls
HF: Form C                          :      0.000u      0.000s      0.004w     20 calls
Grad: V T Perturb                   :      0.000u      0.000s      0.000w      1 calls
Grad: S                             :      0.000u      0.000s      0.000w      1 calls
Grad: JK                            :      0.017u      0.000s      0.018w      1 calls
| JKGrad: Amn                       :      0.000u      0.000s      0.006w      1 calls
| | Libint2ERI::Libint2ERI          :      0.000u      0.000s      0.003w      1 calls
| JKGrad: Awmn                      :      0.000u      0.000s      0.000w      1 calls
| JKGrad: AB                        :      0.000u      0.000s      0.002w      1 calls
| | Libint2ERI::Libint2ERI          :      0.000u      0.000s      0.000w      1 calls
| JKGrad: UV                        :      0.000u      0.000s      0.000w      1 calls
| JKGrad: ABx                       :      0.000u      0.000s      0.001w      1 calls
| | Libint2ERI::Libint2ERI          :      0.000u      0.000s      0.000w      1 calls
| JKGrad: Amnx                      :      0.017u      0.000s      0.008w      1 calls
| | Libint2ERI::Libint2ERI          :      0.000u      0.000s      0.003w      1 calls
Grad: XC                            :      0.000u      0.000s      0.000w      1 calls
Hess: XC                            :      0.000u      0.000s      0.000w      1 calls
Hess: V                             :      0.000u      0.000s      0.001w      1 calls
Hess: T                             :      0.000u      0.000s      0.000w      1 calls
Hess: S                             :      0.000u      0.000s      0.000w      1 calls
Hess: JK                            :      0.117u      0.000s      0.068w      1 calls
| Libint2ERI::Libint2ERI            :      0.000u      0.000s      0.003w      3 calls
Libint2ERI::Libint2ERI              :      0.017u      0.000s      0.003w      3 calls
JK: D                               :      0.000u      0.000s      0.000w     13 calls
JK: USO2AO                          :      0.000u      0.000s      0.000w     13 calls
JK: JK                              :      0.017u      0.017s      0.009w     13 calls
| DFH: compute_JK()                 :      0.017u      0.017s      0.009w     13 calls
| | DFH: Grabbing AOs               :      0.000u      0.000s      0.000w     13 calls
| | DFH: compute_J                  :      0.017u      0.000s      0.002w     13 calls
| | DFH: compute_K                  :      0.000u      0.017s      0.007w     13 calls
JK: AO2USO                          :      0.000u      0.000s      0.000w     13 calls

**************************************************************************************
