
    -----------------------------------------------------------------------
          Psi4: An Open-Source Ab Initio Electronic Structure Package
                               Psi4 1.10 release

                         Git: Rev {} zzzzzzz 


    D. G. A. Smith, L. A. Burns, A. C. Simmonett, R. M. Parrish,
    M. C. Schieber, R. Galvelis, P. Kraus, H. Kruse, R. Di Remigio,
    A. Alenaizan, A. M. James, S. Lehtola, J. P. Misiewicz, M. Scheurer,
    R. A. Shaw, J. B. Schriber, Y. Xie, Z. L. Glick, D. A. Sirianni,
    J. S. O'Brien, J. M. Waldrop, A. Kumar, E. G. Hohenstein,
    B. P. Pritchard, B. R. Brooks, H. F. Schaefer III, A. Yu. Sokolov,
    K. Patkowski, A. E. DePrince III, U. Bozkaya, R. A. King,
    F. A. Evangelista, J. M. Turney, T. D. Crawford, C. D. Sherrill,
    J. Chem. Phys. 152(18) 184108 (2020). https://doi.org/10.1063/5.0006002

                            Additional Code Authors
    E. T. Seidl, C. L. Janssen, E. F. Valeev, M. L. Leininger,
    J. F. Gonthier, R. M. Richard, H. R. McAlexander, M. Saitow, X. Wang,
    P. Verma, M. H. Lechner, A. Jiang, S. Behnle, A. G. Heide,
    M. F. Herbst, D. L. Poole, T. Győri, E. C. Mitchell, J. P. Pederson,
    and A. M. Wallace

             Previous Authors, Complete List of Code Contributors,
                       and Citations for Specific Modules
    https://github.com/psi4/psi4/blob/master/codemeta.json
    https://github.com/psi4/psi4/graphs/contributors
    https://psicode.org/psi4manual/master/introduction.html#citing-psifour

    -----------------------------------------------------------------------


    Psi4 started on: Wednesday, 22 April 2026 05:34PM

    Process ID: 43457
    Host:       sycamore
    PSIDATADIR: /home/shbae/olefin/.pixi/envs/default/share/psi4
    Memory:     3.7 GiB
    Threads:    4
    Addons:     a̶d̶c̶c̶, a̶m̶b̶i̶t̶, b̶s̶e̶, c̶c̶t̶3̶, c̶f̶o̶u̶r̶, c̶h̶e̶m̶p̶s̶2̶, c̶p̶p̶e̶, d̶d̶x̶,
                d̶f̶t̶d̶3̶, d̶f̶t̶d̶4̶, dkh, ecpint, einsums, f̶o̶r̶t̶e̶, g̶a̶u̶x̶c̶, g̶c̶p̶,
                g̶d̶m̶a̶, g̶e̶o̶m̶e̶t̶r̶i̶c̶, g̶p̶u̶_̶d̶f̶c̶c̶, i̶n̶t̶e̶g̶r̶a̶t̶o̶r̶x̶x̶,
                i̶p̶i̶, l̶i̶b̶e̶f̶p̶, m̶d̶i̶, m̶p̶2̶d̶, m̶r̶c̶c̶, ooo,
                o̶p̶e̶n̶f̶e̶r̶m̶i̶o̶n̶p̶s̶i̶4̶, pcmsolver, p̶s̶i̶4̶f̶o̶c̶k̶c̶i̶, p̶s̶i̶x̶a̶s̶,
                r̶e̶s̶p̶, s̶i̶m̶i̶n̶t̶, s̶n̶s̶m̶p̶2̶, v̶2̶r̶d̶m̶_̶c̶a̶s̶s̶c̶f̶

Scratch directory: /tmp/
gradient() will perform analytic gradient computation.
   => Libint2 <=

    Primary   basis highest AM E, G, H:  7, 6, 3
    Auxiliary basis highest AM E, G, H:  7, 7, 4
    Onebody   basis highest AM E, G, H:  -, -, -
    Solid Harmonics ordering:            Gaussian

*** tstart() called on sycamore
*** at Wed Apr 22 17:34:37 2026

   => Loading Basis Set <=

    Name: 6-31G*
    Role: ORBITAL
    Keyword: BASIS
    atoms 1-3  entry C          line   111 file /home/shbae/olefin/.pixi/envs/default/share/psi4/basis/6-31gs.gbs 
    atoms 4    entry O          line   145 file /home/shbae/olefin/.pixi/envs/default/share/psi4/basis/6-31gs.gbs 
    atoms 5    entry N          line   128 file /home/shbae/olefin/.pixi/envs/default/share/psi4/basis/6-31gs.gbs 
    atoms 6-10 entry H          line    44 file /home/shbae/olefin/.pixi/envs/default/share/psi4/basis/6-31gs.gbs 


         ---------------------------------------------------------
                                   SCF
               by Justin Turney, Rob Parrish, Andy Simmonett
                          and Daniel G. A. Smith
                              RKS Reference
                        4 Threads,   3814 MiB Core
         ---------------------------------------------------------

  ==> Geometry <==

    Molecular point group: c1
    Full point group: C1

    Geometry (in Angstrom), charge = 0, multiplicity = 1:

       Center              X                  Y                   Z               Mass       
    ------------   -----------------  -----------------  -----------------  -----------------
         C           -1.778459000000    -0.171092000000    -0.180443000000    12.000000000000
         C           -0.469604000000    -0.425717000000    -0.171037000000    12.000000000000
         C            0.475175000000     0.475872000000     0.559597000000    12.000000000000
         O            0.114448000000     1.471704000000     1.174506000000    15.994914619570
         N            1.790546000000     0.099491000000     0.488872000000    14.003074004430
         H           -2.162908000000     0.697748000000     0.346363000000     1.007825032230
         H           -2.485723000000    -0.808481000000    -0.702390000000     1.007825032230
         H           -0.061660000000    -1.290939000000    -0.692210000000     1.007825032230
         H            2.101577000000    -0.717482000000    -0.013372000000     1.007825032230
         H            2.476608000000     0.668895000000     0.962696000000     1.007825032230

  Running in c1 symmetry.

  Rotational constants: A =      0.28087  B =      0.13282  C =      0.09132 [cm^-1]
  Rotational constants: A =   8420.36395  B =   3981.97112  C =   2737.81347 [MHz]
  Nuclear repulsion =  162.488507936427396

  Charge       = 0
  Multiplicity = 1
  Electrons    = 38
  Nalpha       = 19
  Nbeta        = 19

  ==> Algorithm <==

  SCF Algorithm Type is DF.
  DIIS enabled.
  MOM disabled.
  Fractional occupation disabled.
  Guess Type is SAD.
  Energy threshold   = 1.00e-08
  Density threshold  = 1.00e-08
  Integral threshold = 1.00e-12

  ==> Primary Basis <==

  Basis Set: 6-31G*
    Blend: 6-31G*
    Number of shells: 40
    Number of basis functions: 85
    Number of Cartesian functions: 85
    Spherical Harmonics?: false
    Max angular momentum: 2

  ==> DFT Potential <==

   => LibXC <=

    Version 7.0.0
    S. Lehtola, C. Steigemann, M. J.T. Oliveira, and M. A.L. Marques.,  SoftwareX 7, 1–5 (2018) (10.1016/j.softx.2017.11.002)

   => Composite Functional: B3LYP <= 

    B3LYP Hyb-GGA Exchange-Correlation Functional

    P. J. Stephens, F. J. Devlin, C. F. Chabalowski, and M. J. Frisch.,  J. Phys. Chem. 98, 11623 (1994) (10.1021/j100096a001)

    Deriv               =              1
    GGA                 =           TRUE
    Meta                =          FALSE

    Exchange Hybrid     =           TRUE
    MP2 Hybrid          =          FALSE

   => Exchange Functionals <=

    0.0800   Slater exchange
    0.7200         Becke 88

   => Exact (HF) Exchange <=

    0.2000               HF 

   => Correlation Functionals <=

    0.1900   Vosko, Wilk & Nusair (VWN5_RPA)
    0.8100   Lee, Yang & Parr

   => LibXC Density Thresholds  <==

    XC_HYB_GGA_XC_B3LYP:  1.00E-15 

   => Molecular Quadrature <=

    Radial Scheme          =       TREUTLER
    Pruning Scheme         =           NONE
    Nuclear Scheme         =       TREUTLER

    Blocking Scheme        =         OCTREE
    BS radius alpha        =              1
    Pruning alpha          =              1
    Radial Points          =             75
    Spherical Points       =            302
    Total Points           =         213005
    Total Blocks           =           1612
    Max Points             =            256
    Max Functions          =             84
    Weights Tolerance      =       1.00E-15

   => Loading Basis Set <=

    Name: (6-31G* AUX)
    Role: JKFIT
    Keyword: DF_BASIS_SCF
    atoms 1-3  entry C          line   121 file /home/shbae/olefin/.pixi/envs/default/share/psi4/basis/cc-pvdz-jkfit.gbs 
    atoms 4    entry O          line   221 file /home/shbae/olefin/.pixi/envs/default/share/psi4/basis/cc-pvdz-jkfit.gbs 
    atoms 5    entry N          line   171 file /home/shbae/olefin/.pixi/envs/default/share/psi4/basis/cc-pvdz-jkfit.gbs 
    atoms 6-10 entry H          line    51 file /home/shbae/olefin/.pixi/envs/default/share/psi4/basis/cc-pvdz-jkfit.gbs 

  ==> Integral Setup <==

  DFHelper Memory: AOs need 0.032 GiB; user supplied 2.361 GiB. 
  SCF_SUBTYPE=INCORE selected. In-core MEM_DF algorithm will be used.
  Using in-core AOs.

  ==> MemDFJK: Density-Fitted J/K Matrices <==

    J tasked:                   Yes
    K tasked:                   Yes
    wK tasked:                   No
    OpenMP threads:               4
    Memory [MiB]:              2418
    Algorithm:                 Core
    Schwarz Cutoff:           1E-12
    Mask sparsity (%):       0.7474
    Fitting Condition:        1E-10

   => Auxiliary Basis Set <=

  Basis Set: (6-31G* AUX)
    Blend: CC-PVDZ-JKFIT
    Number of shells: 165
    Number of basis functions: 530
    Number of Cartesian functions: 530
    Spherical Harmonics?: false
    Max angular momentum: 3

  Cached 100.0% of DFT collocation blocks in 0.433 [GiB].

  Minimum eigenvalue in the overlap matrix is 2.7117939226E-03.
  Reciprocal condition number of the overlap matrix is 3.9617760876E-04.
    Using symmetric orthogonalization.

  ==> Pre-Iterations <==

  SCF Guess: Superposition of Atomic Densities via on-the-fly atomic UHF (no occupation information).

   -------------------------
    Irrep   Nso     Nmo    
   -------------------------
     A         85      85 
   -------------------------
    Total      85      85
   -------------------------

  ==> Iterations <==

                           Total Energy        Delta E     RMS |[F,P]|

   @DF-RKS iter SAD:  -242.57739428735479   -2.42577e+02   0.00000e+00 
   @DF-RKS iter   1:  -237.91565597731110    4.66174e+00   3.67776e-02 ADIIS/DIIS
   @DF-RKS iter   2:  -224.08837501799195    1.38273e+01   6.93840e-02 ADIIS/DIIS
   @DF-RKS iter   3:  -244.75028583347932   -2.06619e+01   2.52838e-02 ADIIS/DIIS
   @DF-RKS iter   4:  -245.42484737562273   -6.74562e-01   2.30707e-02 ADIIS/DIIS
   @DF-RKS iter   5:  -247.19405144791989   -1.76920e+00   4.80758e-03 ADIIS/DIIS
   @DF-RKS iter   6:  -247.17164017419199    2.24113e-02   6.16435e-03 ADIIS/DIIS
   @DF-RKS iter   7:  -247.29014691230472   -1.18507e-01   6.80188e-04 ADIIS/DIIS
   @DF-RKS iter   8:  -247.29102472875240   -8.77816e-04   3.92205e-04 ADIIS/DIIS
   @DF-RKS iter   9:  -247.29148112336725   -4.56395e-04   4.59185e-05 DIIS
   @DF-RKS iter  10:  -247.29148872054054   -7.59717e-06   1.29892e-05 DIIS
   @DF-RKS iter  11:  -247.29148933410940   -6.13569e-07   5.12320e-06 DIIS
   @DF-RKS iter  12:  -247.29148941950533   -8.53959e-08   7.53319e-07 DIIS
   @DF-RKS iter  13:  -247.29148942161186   -2.10653e-09   1.46607e-07 DIIS
   @DF-RKS iter  14:  -247.29148942168271   -7.08553e-11   2.84784e-08 DIIS
   @DF-RKS iter  15:  -247.29148942168490   -2.18847e-12   1.06713e-08 DIIS
   @DF-RKS iter  16:  -247.29148942168533   -4.26326e-13   1.03028e-09 DIIS
  Energy and wave function converged.


  ==> Post-Iterations <==

   Electrons on quadrature grid:
      Ntotal   =   37.9999972715 ; deviation = -2.728e-06 

    Orbital Energies [Eh]
    ---------------------

    Doubly Occupied:                                                      

       1A    -19.104876     2A    -14.357799     3A    -10.287290  
       4A    -10.199974     5A    -10.197846     6A     -1.024106  
       7A     -0.901530     8A     -0.780091     9A     -0.643145  
      10A     -0.565416    11A     -0.528605    12A     -0.499863  
      13A     -0.422201    14A     -0.415535    15A     -0.405751  
      16A     -0.371897    17A     -0.276606    18A     -0.262766  
      19A     -0.248463  

    Virtual:                                                              

      20A     -0.030798    21A      0.071725    22A      0.101312  
      23A      0.110988    24A      0.140515    25A      0.158406  
      26A      0.192170    27A      0.279943    28A      0.319286  
      29A      0.331004    30A      0.392606    31A      0.504793  
      32A      0.527048    33A      0.576368    34A      0.603635  
      35A      0.614478    36A      0.655443    37A      0.660355  
      38A      0.674487    39A      0.702792    40A      0.733173  
      41A      0.813926    42A      0.844740    43A      0.859455  
      44A      0.880265    45A      0.896876    46A      0.913768  
      47A      0.982872    48A      1.040873    49A      1.048658  
      50A      1.093915    51A      1.162269    52A      1.248871  
      53A      1.316821    54A      1.346548    55A      1.385668  
      56A      1.439013    57A      1.491963    58A      1.627570  
      59A      1.693593    60A      1.704673    61A      1.816545  
      62A      1.833423    63A      1.836525    64A      1.935868  
      65A      1.993018    66A      2.018183    67A      2.051527  
      68A      2.151387    69A      2.189151    70A      2.271183  
      71A      2.321332    72A      2.422324    73A      2.438627  
      74A      2.498655    75A      2.664925    76A      2.665886  
      77A      2.696981    78A      2.915938    79A      3.053545  
      80A      3.123518    81A      3.799180    82A      4.005035  
      83A      4.141830    84A      4.301189    85A      4.517387  

    Final Occupation by Irrep:
              A 
    DOCC [    19 ]
    NA   [    19 ]
    NB   [    19 ]

  @DF-RKS Final Energy:  -247.29148942168533

   => Energetics <=

    Nuclear Repulsion Energy =            162.4885079364273963
    One-Electron Energy =                -657.0261918791081825
    Two-Electron Energy =                 274.4422277475638907
    DFT Exchange-Correlation Energy =     -27.1960332265684244
    Empirical Dispersion Energy =           0.0000000000000000
    VV10 Nonlocal Energy =                  0.0000000000000000
    Total Energy =                       -247.2914894216853554

Computation Completed


Properties will be evaluated at   0.000000,   0.000000,   0.000000 [a0]

Properties computed using the SCF density matrix


 Multipole Moments:

 ------------------------------------------------------------------------------------
     Multipole            Electronic (a.u.)      Nuclear  (a.u.)        Total (a.u.)
 ------------------------------------------------------------------------------------

 L = 1.  Multiply by 2.5417464519 to convert [e a0] to [Debye]
 Dipole X            :         -4.4486675            5.0644131            0.6157456
 Dipole Y            :        -20.5275836           19.4531960           -1.0743876
 Dipole Z            :        -27.0278222           26.3955830           -0.6322392
 Magnitude           :                                                    1.3903876

 ------------------------------------------------------------------------------------

*** tstop() called on sycamore at Wed Apr 22 17:34:39 2026
Module time:
	user time   =       6.70 seconds =       0.11 minutes
	system time =       0.02 seconds =       0.00 minutes
	total time  =          2 seconds =       0.03 minutes
Total time:
	user time   =      61.16 seconds =       1.02 minutes
	system time =       0.72 seconds =       0.01 minutes
	total time  =         11 seconds =       0.18 minutes

*** tstart() called on sycamore
*** at Wed Apr 22 17:34:39 2026


         ------------------------------------------------------------
                                   SCF GRAD                          
                          Rob Parrish, Justin Turney,                
                       Andy Simmonett, and Alex Sokolov              
         ------------------------------------------------------------

  ==> Geometry <==

    Molecular point group: c1
    Full point group: C1

    Geometry (in Angstrom), charge = 0, multiplicity = 1:

       Center              X                  Y                   Z               Mass       
    ------------   -----------------  -----------------  -----------------  -----------------
         C           -1.778459000000    -0.171092000000    -0.180443000000    12.000000000000
         C           -0.469604000000    -0.425717000000    -0.171037000000    12.000000000000
         C            0.475175000000     0.475872000000     0.559597000000    12.000000000000
         O            0.114448000000     1.471704000000     1.174506000000    15.994914619570
         N            1.790546000000     0.099491000000     0.488872000000    14.003074004430
         H           -2.162908000000     0.697748000000     0.346363000000     1.007825032230
         H           -2.485723000000    -0.808481000000    -0.702390000000     1.007825032230
         H           -0.061660000000    -1.290939000000    -0.692210000000     1.007825032230
         H            2.101577000000    -0.717482000000    -0.013372000000     1.007825032230
         H            2.476608000000     0.668895000000     0.962696000000     1.007825032230

  Nuclear repulsion =  162.488507936427396

  ==> Basis Set <==

  Basis Set: 6-31G*
    Blend: 6-31G*
    Number of shells: 40
    Number of basis functions: 85
    Number of Cartesian functions: 85
    Spherical Harmonics?: false
    Max angular momentum: 2

  ==> DFJKGrad: Density-Fitted SCF Gradients <==

    Gradient:                    1
    J tasked:                  Yes
    K tasked:                  Yes
    wK tasked:                  No
    OpenMP threads:              4
    Integrals threads:           4
    Memory [MiB]:             2861
    Schwarz Cutoff:          1E-12
    Fitting Condition:       1E-10

   => Auxiliary Basis Set <=

  Basis Set: (6-31G* AUX)
    Blend: CC-PVDZ-JKFIT
    Number of shells: 165
    Number of basis functions: 530
    Number of Cartesian functions: 530
    Spherical Harmonics?: false
    Max angular momentum: 3

  ==> DFT Potential <==

   => LibXC <=

    Version 7.0.0
    S. Lehtola, C. Steigemann, M. J.T. Oliveira, and M. A.L. Marques.,  SoftwareX 7, 1–5 (2018) (10.1016/j.softx.2017.11.002)

   => Composite Functional: B3LYP <= 

    B3LYP Hyb-GGA Exchange-Correlation Functional

    P. J. Stephens, F. J. Devlin, C. F. Chabalowski, and M. J. Frisch.,  J. Phys. Chem. 98, 11623 (1994) (10.1021/j100096a001)

    Deriv               =              1
    GGA                 =           TRUE
    Meta                =          FALSE

    Exchange Hybrid     =           TRUE
    MP2 Hybrid          =          FALSE

   => Exchange Functionals <=

    0.0800   Slater exchange
    0.7200         Becke 88

   => Exact (HF) Exchange <=

    0.2000               HF 

   => Correlation Functionals <=

    0.1900   Vosko, Wilk & Nusair (VWN5_RPA)
    0.8100   Lee, Yang & Parr

   => LibXC Density Thresholds  <==

    XC_HYB_GGA_XC_B3LYP:  1.00E-15 

   => Molecular Quadrature <=

    Radial Scheme          =       TREUTLER
    Pruning Scheme         =           NONE
    Nuclear Scheme         =       TREUTLER

    Blocking Scheme        =         OCTREE
    BS radius alpha        =              1
    Pruning alpha          =              1
    Radial Points          =             75
    Spherical Points       =            302
    Total Points           =         213005
    Total Blocks           =           1612
    Max Points             =            256
    Max Functions          =             84
    Weights Tolerance      =       1.00E-15


  -Total Gradient:
     Atom            X                  Y                   Z
    ------   -----------------  -----------------  -----------------
       1        0.000028611841    -0.000044713976    -0.000024854008
       2       -0.000034130731     0.000137523121     0.000100716748
       3       -0.000031640463    -0.000090444979    -0.000109903244
       4        0.000024164692     0.000010117362     0.000028309490
       5        0.000055381975     0.000035723927     0.000042102298
       6       -0.000011068634     0.000011165583     0.000006607972
       7        0.000005182854     0.000008335973     0.000004067939
       8        0.000038487015    -0.000071383720    -0.000041460782
       9       -0.000034881135    -0.000005274365    -0.000006078327
      10       -0.000022991465    -0.000002035142    -0.000004495914


*** tstop() called on sycamore at Wed Apr 22 17:34:39 2026
Module time:
	user time   =       1.16 seconds =       0.02 minutes
	system time =       0.00 seconds =       0.00 minutes
	total time  =          0 seconds =       0.00 minutes
Total time:
	user time   =      62.32 seconds =       1.04 minutes
	system time =       0.72 seconds =       0.01 minutes
	total time  =         11 seconds =       0.18 minutes

    			-----------------------------------------

    			 OPTKING 3.0: for geometry optimizations 

    			     By R.A. King, Bethel University     

    			        with contributions from          

    			    A.V. Copan, J. Cayton, A. Heide      

    			-----------------------------------------

    
	                            ===> Fragment 1 <== 

	 Z (Atomic Numbers)          Masses                          Geom                  
	       6.000000            12.000000         -3.36080044 -0.32331702 -0.34098785   
	       6.000000            12.000000         -0.88742295 -0.80448854 -0.32321309   
	       6.000000            12.000000          0.89795061  0.89926775  1.05748507   
	       8.000000            15.994915          0.21627538  2.78111750  2.21949467   
	       7.000000            14.003074          3.38364156  0.18801074  0.92383419   
	       1.000000             1.007825         -4.08730375  1.31855262  0.65453121   
	       1.000000             1.007825         -4.69733569 -1.52780767 -1.32732473   
	       1.000000             1.007825         -0.11652051 -2.43952115 -1.30808732   
	       1.000000             1.007825          3.97140496 -1.35584448 -0.02526942   
	       1.000000             1.007825          4.68011084  1.26402836  1.81923178   

	 - Coordinate -           - BOHR/RAD -       - ANG/DEG -
	 R(1,2)           =         2.519809           1.333426
	 R(1,6)           =         2.052949           1.086374
	 R(1,7)           =         2.051825           1.085779
	 R(2,3)           =         2.827839           1.496428
	 R(2,8)           =         2.058543           1.089334
	 R(3,4)           =         2.314369           1.224712
	 R(3,5)           =         2.588901           1.369987
	 R(5,9)           =         1.905191           1.008184
	 R(5,10)          =         1.907979           1.009659
	 B(1,2,3)         =         2.103793         120.538484
	 B(1,2,8)         =         2.112835         121.056531
	 B(2,1,6)         =         2.090543         119.779277
	 B(2,1,7)         =         2.130198         122.051362
	 B(2,3,4)         =         2.152061         123.304015
	 B(2,3,5)         =         1.999240         114.547999
	 B(3,2,8)         =         2.066557         118.404985
	 B(3,5,9)         =         2.146652         122.994097
	 B(3,5,10)        =         2.063767         118.245145
	 B(4,3,5)         =         2.131884         122.147984
	 B(6,1,7)         =         2.062444         118.169361
	 B(9,5,10)        =         2.072766         118.760758
	 D(1,2,3,4)       =         0.000146           0.008385
	 D(1,2,3,5)       =         3.141476         179.993315
	 D(2,3,5,9)       =         0.000110           0.006313
	 D(2,3,5,10)      =        -3.141463        -179.992548
	 D(3,2,1,6)       =        -0.000015          -0.000871
	 D(3,2,1,7)       =         3.141566         179.998465
	 D(4,3,2,8)       =        -3.141459        -179.992319
	 D(4,3,5,9)       =         3.141443         179.991438
	 D(4,3,5,10)      =        -0.000130          -0.007424
	 D(5,3,2,8)       =        -0.000129          -0.007388
	 D(6,1,2,8)       =         3.141593         180.000000
	 D(7,1,2,8)       =        -0.000014          -0.000813


	        --- Internal Coordinate Step in ANG or DEG, aJ/ANG or AJ/DEG ---
	-------------------------------------------------------------------------------
	           Coordinate      Previous         Force          Change          New 
	           ----------      --------        ------          ------        ------
	               R(1,2)       1.33343        0.00018        0.00002       1.33345
	               R(1,6)       1.08637       -0.00014       -0.00003       1.08635
	               R(1,7)       1.08578        0.00008        0.00001       1.08579
	               R(2,3)       1.49643        0.00052        0.00010       1.49653
	               R(2,8)       1.08933       -0.00074       -0.00014       1.08920
	               R(3,4)       1.22471       -0.00014       -0.00001       1.22470
	               R(3,5)       1.36999        0.00015        0.00002       1.37001
	               R(5,9)       1.00818        0.00004        0.00001       1.00819
	              R(5,10)       1.00966        0.00016        0.00002       1.00968
	             B(1,2,3)     120.53848       -0.00000       -0.01176     120.52673
	             B(1,2,8)     121.05653        0.00000        0.00444     121.06097
	             B(2,1,6)     119.77928       -0.00000       -0.00246     119.77681
	             B(2,1,7)     122.05136       -0.00000       -0.00026     122.05110
	             B(2,3,4)     123.30402       -0.00000       -0.00545     123.29857
	             B(2,3,5)     114.54800       -0.00000       -0.00534     114.54266
	             B(3,2,8)     118.40499        0.00000        0.00732     118.41230
	             B(3,5,9)     122.99410        0.00000        0.01298     123.00708
	            B(3,5,10)     118.24515       -0.00000       -0.00091     118.24424
	             B(4,3,5)     122.14798        0.00000        0.01076     122.15874
	             B(6,1,7)     118.16936        0.00000        0.00273     118.17209
	            B(9,5,10)     118.76076       -0.00000       -0.01207     118.74868
	           D(1,2,3,4)       0.00838       -0.00000       -0.04223      -0.03385
	           D(1,2,3,5)     179.99332        0.00000        0.03357     180.02689
	           D(2,3,5,9)       0.00631       -0.00000       -0.03205      -0.02573
	          D(2,3,5,10)    -179.99255       -0.00000       -0.03745    -180.03000
	           D(3,2,1,6)      -0.00087        0.00000        0.00235       0.00148
	           D(3,2,1,7)     179.99846        0.00000        0.00462     180.00309
	           D(4,3,2,8)    -179.99232       -0.00000       -0.03978    -180.03210
	           D(4,3,5,9)     179.99144        0.00000        0.04279     180.03423
	          D(4,3,5,10)      -0.00742        0.00000        0.03739       0.02997
	           D(5,3,2,8)      -0.00739        0.00000        0.03602       0.02864
	           D(6,1,2,8)     180.00000        0.00000        0.00000     180.00000
	           D(7,1,2,8)      -0.00081        0.00000        0.00210       0.00129
	-------------------------------------------------------------------------------

	                                 ==> Convergence Check <==                                  
    
	Measures of convergence in internal coordinates in au.
    
	Criteria marked as inactive (o), active & met (*), and active & unmet ( ).

	----------------------------------------------------------------------------------------------~
	   Step    Total Energy     Delta E     Max Force     RMS Force      Max Disp      RMS Disp   ~
	----------------------------------------------------------------------------------------------~
	  Convergence Criteria     1.00e-06 *    3.00e-04 *             o    1.20e-03 *             o~
	----------------------------------------------------------------------------------------------~
	     1    -247.29148942   -2.47e+02      8.93e-05 *    2.65e-05 o    7.47e-04 *    3.40e-04 o  ~
	----------------------------------------------------------------------------------------------

Next Geometry in Ang 
	Fragment 1 (Ang)

	    C  -1.7784351269  -0.1710404947  -0.1804841682
	    C  -0.4696122040  -0.4259284838  -0.1709806753
	    C   0.4750921783   0.4755799139   0.5600561983
	    O   0.1142331537   1.4717107391   1.1743845696
	    N   1.7905367466   0.0994713248   0.4888887104
	    H  -2.1627138786   0.6977906496   0.3464061765
	    H  -2.4857815575  -0.8082480263  -0.7025718884
	    H  -0.0617588586  -1.2910295459  -0.6921424422
	    H   2.1017893361  -0.7173946253  -0.0134043718
	    H   2.4766502110   0.6690875484   0.9624298912


    Final optimized geometry and variables:
    Molecular point group: c1
    Full point group: C1

    Geometry (in Angstrom), charge = 0, multiplicity = 1:

    C           -1.778459000000    -0.171092000000    -0.180443000000
    C           -0.469604000000    -0.425717000000    -0.171037000000
    C            0.475175000000     0.475872000000     0.559597000000
    O            0.114448000000     1.471704000000     1.174506000000
    N            1.790546000000     0.099491000000     0.488872000000
    H           -2.162908000000     0.697748000000     0.346363000000
    H           -2.485723000000    -0.808481000000    -0.702390000000
    H           -0.061660000000    -1.290939000000    -0.692210000000
    H            2.101577000000    -0.717482000000    -0.013372000000
    H            2.476608000000     0.668895000000     0.962696000000

