76
 energy: -119.507427383788 gnorm: 0.085250115361 xtb: 6.7.1 (d3f212b)
C           -0.10597880671701        2.74715548896912        2.10956546886509
C           -0.16876795078063        2.73718210167369        0.58176621497490
C           -1.03028451853811        3.88052337897023        0.04299965932507
C           -0.59339277206456        1.38288121234251        0.03375548886887
C           -1.84758146520837        0.76297063431265        0.02310346635035
C           -1.68033148602124       -0.51741810644994       -0.60376422459925
C           -0.34935712744371       -0.65101469952480       -0.97038958408865
N            0.29679852126190        0.51724629554364       -0.59424869656791
C            1.72265031516393        0.76479540504516       -0.81268789487987
C            2.57000286318571        0.38198281242901        0.40002041858134
C            4.06445705735793        0.44294267990530        0.08050551477496
C            4.90700356827534        0.07126748601151        1.31064419176754
C            6.39890717652186       -0.08755050237671        0.97562103435600
C            7.20627480982077       -0.38673573509635        2.24008324516282
C            8.61244784358022       -0.77439834739643        1.88508505246411
O            9.19627176725378       -0.50217793815998        0.84829792546862
O            9.22684673144525       -1.45110919822934        2.87193923014515
O            6.86200145501537        1.12659655159726        0.37292562114067
O            4.37453821447177        1.76712196562082       -0.34734335435603
C            0.33081169698102       -1.80165588824426       -1.57278345559934
C            0.64162373120598       -2.91937274404252       -0.78652541514316
C            1.28074566618392       -4.02184775817478       -1.35521819491426
C            1.60263683327828       -4.00393764971878       -2.70741835169544
C            1.29480713458767       -2.90666544305126       -3.50385590880035
C            0.65407692556987       -1.80396713009294       -2.93695512999234
F            2.21825526282893       -5.06134800787280       -3.25228748181453
C           -2.67063330226964       -1.57155618318121       -0.79015817734016
C           -3.33388682642779       -2.11008700368098        0.31887006812365
C           -4.31128676321503       -3.09148443320889        0.14509853020531
C           -4.63034455116948       -3.54008847126911       -1.13577946623883
C           -3.97466302824852       -3.00783620073844       -2.24499494204841
C           -2.99952950892881       -2.02353591185164       -2.07411681456633
C           -3.10079285135687        1.31306314401924        0.56591953371225
O           -3.14369432955217        1.84437413217357        1.66824982444384
N           -4.16815581039215        1.15881777370041       -0.29877459984726
C           -5.50957644050247        1.53781141041226       -0.10214799833035
C           -5.97792785580822        2.20463026166433        1.03084032659768
C           -7.33023597668284        2.54436701301272        1.14440753751601
C           -8.22453112358334        2.21961339228130        0.12720412912052
C           -7.76790392593272        1.55371532646122       -1.00653818583465
C           -6.41708626793140        1.21511344521878       -1.12009846439334
H           -1.09284048526918        2.68460474970459        2.57235865544257
H            0.35836165100910        3.67408118576598        2.46433854981721
H            0.48953940290469        1.90996104636686        2.48843448168212
H            0.84721958985007        2.96272468880768        0.24550187388689
H           -1.07830576804927        3.85345680797132       -1.05127458446890
H           -2.05433865164599        3.85144725405335        0.42442157553755
H           -0.60467745109034        4.84728662114640        0.33439642822284
H            2.03768833204437        0.19578961550095       -1.69205324966029
H            1.84763598229186        1.81412266312671       -1.09461322299302
H            2.34304926223441        1.06831721642402        1.22392995230393
H            2.30847367036899       -0.62645192777414        0.74236392496218
H            4.29177564819585       -0.23966570131690       -0.74666469208654
H            4.53653997165065       -0.86311478743288        1.74872638157921
H            4.79677972059057        0.86567007105573        2.06057407442715
H            6.52082577855236       -0.88967014877990        0.23751776994962
H            6.74779827798477       -1.22065584692679        2.78309584307493
H            7.25749368425157        0.49221389623402        2.89153590809582
H           10.13401606533171       -1.61664610156083        2.53825691835640
H            7.79496531679654        0.97093955409631        0.11111335020692
H            5.35036195690904        1.86188390455752       -0.27039894995998
H            0.37794750039429       -2.93505337412309        0.26872360301573
H            1.52143366565090       -4.89321795572862       -0.75523942136633
H            1.55128971912801       -2.91822728510221       -4.55813987104186
H            0.40589418957102       -0.94783494025397       -3.55985289083729
H           -3.09665983197695       -1.76767227888540        1.32408941439825
H           -4.82441425762563       -3.50343308705554        1.01032106852954
H           -5.39045054034545       -4.30579237323048       -1.26863032470595
H           -4.22173231098267       -3.36004250639736       -3.24307854254926
H           -2.50019495987899       -1.61315084201300       -2.94812012016019
H           -3.96159341981758        0.69290238081212       -1.17216710335727
H           -5.31678633098397        2.47927080166411        1.84647834860639
H           -7.68056935305204        3.06447065077278        2.03240096332354
H           -9.27421998799776        2.48496779588394        0.21988293891589
H           -8.46148683435583        1.29586092970195       -1.80234272796358
H           -6.08603408785268        0.69027276392774       -2.01257027509970
76
 energy: -119.516819436272 gnorm: 0.037725016592 xtb: 6.7.1 (d3f212b)
C           -0.11268297957645        2.73763692509103        2.10033186744482
C           -0.16002836679028        2.72433816553480        0.56937265723216
C           -1.03450493439163        3.86485693382906        0.04085768337131
C           -0.58426773293840        1.37715778473507        0.03585260463970
C           -1.83563531355037        0.76592359314844        0.02476735204563
C           -1.67873833889388       -0.50845775375266       -0.60287945829652
C           -0.35084852687406       -0.63141238482867       -0.95992381309451
N            0.29720950788643        0.52634219362833       -0.58931020584883
C            1.71363827722409        0.75996080624732       -0.81372697607317
C            2.56289116416383        0.38483229727314        0.39955687473793
C            4.05893462155218        0.45315082052407        0.08241872693600
C            4.90331111242638        0.08137791893515        1.30951453947469
C            6.39119605550108       -0.08016317196452        0.97345345610955
C            7.20541148875350       -0.40254314588041        2.23163688859919
C            8.62069628072829       -0.76644704174897        1.89198716511025
O            9.18454944961486       -0.49853885418914        0.85048722177159
O            9.23505775742961       -1.44888965341437        2.85987712157899
O            6.86856389311230        1.12397676368672        0.37534937210270
O            4.35510368123925        1.77224349196841       -0.35411886257196
C            0.32982111970322       -1.78702959279079       -1.56833029537990
C            0.63446637662870       -2.90612913708546       -0.79273744872352
C            1.26786722047843       -4.00520321595372       -1.35238805315700
C            1.59024337080715       -3.98293062361811       -2.69778863732430
C            1.28848959337321       -2.89205462668383       -3.49381439089326
C            0.65774421774254       -1.79611013018627       -2.92486265626738
F            2.21052508933825       -5.05035986729324       -3.24692492532862
C           -2.69014196737794       -1.55351418407576       -0.79046660478127
C           -3.35040682204857       -2.09694561008774        0.31014283197533
C           -4.30931917539835       -3.08315128922225        0.13842833107868
C           -4.62311175991336       -3.53450369134532       -1.13428287054458
C           -3.96584719772194       -3.00700257487055       -2.23492843317552
C           -3.00274759858506       -2.02427655687149       -2.06515037614076
C           -3.09764197257270        1.31215917688360        0.56394398889007
O           -3.16131985256936        1.85223824034045        1.66234504512804
N           -4.16408609308802        1.15631182312661       -0.28595964785665
C           -5.50499509958738        1.52869181194720       -0.09880813340420
C           -5.97154689599088        2.19976557984915        1.02779862454704
C           -7.31468415250844        2.53687453230582        1.13564001697998
C           -8.20759322475749        2.21535905954053        0.12632451001792
C           -7.75037873538831        1.55116113556094       -1.00088319672650
C           -6.41169039695369        1.21044003539020       -1.11345574117482
H           -1.10949527418595        2.66640261062168        2.53385211209437
H            0.34496255299508        3.66508730490804        2.44835107267872
H            0.47990617165581        1.90420303296405        2.47712423732783
H            0.85782186554269        2.92659666732914        0.22269568763233
H           -1.08388695147722        3.83961122480119       -1.04776629809969
H           -2.04965245303801        3.81797367267389        0.43334683690980
H           -0.60793184753237        4.82368730157314        0.33821769646080
H            2.02419802836756        0.16784974998005       -1.67957062500414
H            1.86553517143804        1.81068949541905       -1.07270735331832
H            2.34687780031894        1.07244417499977        1.22049380187211
H            2.30747639110141       -0.62654203646744        0.72485087690693
H            4.28536252035757       -0.24439193031587       -0.73911830541419
H            4.53826421826049       -0.85395825568318        1.73741974214268
H            4.79314135635080        0.87330009366515        2.05429989560786
H            6.51302505346985       -0.89501263421520        0.24627311517700
H            6.75555648947225       -1.22453338087449        2.78978982732126
H            7.24303952581542        0.47713380358413        2.87871478456390
H           10.14776976466096       -1.63334189721109        2.55713391495194
H            7.79370154904824        0.97199305075593        0.11361193343136
H            5.32518510165886        1.87567597177751       -0.28037852102463
H            0.37489383461151       -2.92016293553172        0.25602404619001
H            1.51178080951631       -4.87350637996549       -0.75701846063333
H            1.54382874857363       -2.90840508415885       -4.54377505579417
H            0.41064314000607       -0.94667253286858       -3.54524049965640
H           -3.10561094552276       -1.75516393481624        1.30776603902423
H           -4.81608466826440       -3.49700286827823        0.99990874137113
H           -5.37981925774623       -4.29609966715117       -1.26726066716313
H           -4.21261918753063       -3.35480657616118       -3.22903139524733
H           -2.49853333990165       -1.61531351825769       -2.93041983898911
H           -3.96207958234337        0.68632936640144       -1.15798911821520
H           -5.30197300921256        2.46570421799015        1.83228354984782
H           -7.66208553713095        3.05487144448131        2.01899364532014
H           -9.25248718394507        2.48055006348100        0.21802459085462
H           -8.43922896048135        1.29592227868136       -1.79429027315837
H           -6.07498503513487        0.68975212218220       -1.99982369997832
76
 energy: -119.519874719163 gnorm: 0.013327536606 xtb: 6.7.1 (d3f212b)
C           -0.11896177818027        2.72546986450262        2.09179123507191
C           -0.15177286151873        2.71547520323009        0.55859740605938
C           -1.03771771082215        3.84946121562245        0.03477163055351
C           -0.57499828642865        1.37562016576920        0.03437382412710
C           -1.82498539819765        0.77115894536647        0.02803779805925
C           -1.67687527520378       -0.49924302008720       -0.60163591615771
C           -0.35211890888242       -0.61266783941037       -0.95455239942759
N            0.29918220777082        0.53430193741581       -0.58638427717777
C            1.70900626690724        0.74902887935005       -0.81395513432665
C            2.55756107688381        0.37735749879990        0.40449563897248
C            4.05425894618198        0.45992714990095        0.08165288370713
C            4.90139782730946        0.09380034832108        1.30882927501374
C            6.38509635903833       -0.07802903735327        0.96788730705516
C            7.19985624433417       -0.41756308832540        2.22672167547228
C            8.61584707196781       -0.77902172130054        1.88339153818155
O            9.17082287061723       -0.48342256342973        0.84524527797130
O            9.23622860975160       -1.44131600774781        2.84663725701345
O            6.86971097012991        1.11873171305375        0.37815020116998
O            4.33066353297298        1.77540192940116       -0.36163121687273
C            0.32608441541269       -1.77089662239365       -1.56647946583825
C            0.62564439237434       -2.88887942100056       -0.79351705851972
C            1.25478288713636       -3.98820619652490       -1.34640111821194
C            1.57674831336208       -3.96073983309417       -2.68866972137175
C            1.28279385221267       -2.87444570982474       -3.48848749600642
C            0.65775591560715       -1.78157454069925       -2.91829703300372
F            2.20044906780807       -5.03891586674410       -3.24138637980761
C           -2.70070815154452       -1.53728747422287       -0.78857656133107
C           -3.36443699292910       -2.07804784712323        0.30784817044577
C           -4.31374236848084       -3.06712511151635        0.13658363870598
C           -4.62050754711593       -3.52532714410647       -1.13272158077619
C           -3.96115925419159       -2.99906866688096       -2.22931143061876
C           -3.00308120120489       -2.01795734829958       -2.05924485687030
C           -3.09002213672547        1.31197099326194        0.56628759341652
O           -3.17096699870294        1.86410890458113        1.66054085775453
N           -4.15410951823161        1.14823872380823       -0.27154548576819
C           -5.49342233762373        1.51587156741274       -0.09430518119890
C           -5.95940266076645        2.19138456869738        1.02926152545794
C           -7.29698555093450        2.52887925832935        1.13165654477699
C           -8.18889223975598        2.20932367527934        0.12483550956235
C           -7.72928300152849        1.54286264147903       -0.99849750109811
C           -6.39739840731683        1.19890646023374       -1.10911074710180
H           -1.12749155937849        2.63938607056333        2.49106694962163
H            0.32148379892683        3.65593827294707        2.44272599820565
H            0.47228624078204        1.89567336057093        2.46997781173268
H            0.86581214574566        2.90872822470660        0.20831929568696
H           -1.09222531609429        3.82551236105661       -1.05038723611938
H           -2.04406541024034        3.77487714539994        0.43908982956129
H           -0.61934394941480        4.80552645569633        0.34005039522514
H            2.01191547201915        0.13335877296720       -1.66476832361881
H            1.89034620019614        1.79451805881511       -1.07134731932704
H            2.34427848098736        1.06650675804126        1.22129536473656
H            2.31118907569358       -0.63650882006584        0.71994513797181
H            4.28162583888911       -0.24934406400044       -0.73493446564339
H            4.53741276560839       -0.84148834524822        1.72946811729419
H            4.79265799713431        0.88557998909175        2.04993929825939
H            6.49742209264917       -0.90091898745499        0.24418579110917
H            6.75316326633700       -1.23403888510308        2.78974954989339
H            7.23100157923278        0.46103825471335        2.87641421217632
H           10.16122413071817       -1.63589870454580        2.58910412036002
H            7.79010805776364        0.97330244804825        0.11535240294645
H            5.29494552236064        1.89549844907431       -0.29679164936402
H            0.36346377913272       -2.89996050969800        0.25148199896904
H            1.49694270559462       -4.85642473065557       -0.75533151442933
H            1.54009928063641       -2.89480482155146       -4.53490980636363
H            0.41784993923839       -0.93100305704372       -3.53505583804494
H           -3.12337768470215       -1.72349052352820        1.29917802958679
H           -4.81445491153103       -3.48470542026003        0.99653666334082
H           -5.36795892282414       -4.29214148695983       -1.26550976012314
H           -4.19552528817060       -3.35540128147949       -3.22068093853798
H           -2.48823446023270       -1.61272668568233       -2.91706836086167
H           -3.95751693196637        0.67114465678982       -1.14190879545614
H           -5.27903652367340        2.45017185614951        1.82296779929769
H           -7.64187187159590        3.04962829732547        2.01118856947593
H           -9.23033169527037        2.47668395775297        0.21360958019579
H           -8.41417982949551        1.29024657935456       -1.79264118701404
H           -6.05195625654734        0.67798977047782       -1.98906575880739
76
 energy: -119.520761456159 gnorm: 0.009776429169 xtb: 6.7.1 (d3f212b)
C           -0.12477758301403        2.71843659603208        2.08776585938519
C           -0.14354029316213        2.71560946603397        0.55402460166612
C           -1.04055077891053        3.84109995920145        0.03129827804527
C           -0.56730900817590        1.37819881523377        0.03326920941844
C           -1.81841409120328        0.77744882696869        0.03323287840646
C           -1.67724313194876       -0.49171088054568       -0.60040376014345
C           -0.35440689158488       -0.60480048341957       -0.95671420447283
N            0.30149952254878        0.53683569796573       -0.58903779290239
C            1.71061248467379        0.73683519314292       -0.81648025537869
C            2.55439390274542        0.36678322732534        0.40751370718129
C            4.05011254730501        0.46151663128957        0.08102829788107
C            4.89898443978344        0.09979970691709        1.30848699927472
C            6.38095304267762       -0.07829107925353        0.96437365254695
C            7.19575964458659       -0.42426842211377        2.22361596564696
C            8.61910038478593       -0.76835099489659        1.88430367400588
O            9.16539432342869       -0.47099072386762        0.84048335849687
O            9.23215378857221       -1.44285991845803        2.83752527918059
O            6.86498665773377        1.11554205108681        0.37746484572260
O            4.31094438090589        1.77638644576192       -0.36616529876145
C            0.32018458967161       -1.76255893555651       -1.56900097784306
C            0.61449930028726       -2.87902271930189       -0.79292463894895
C            1.24326534719376       -3.97979299446244       -1.34346251749189
C            1.56713409415309       -3.94852128247244       -2.68517824773049
C            1.28107331366733       -2.86278698338852       -3.48864444216316
C            0.65716654097417       -1.76881799166607       -2.91897913163542
F            2.19211095075715       -5.03157292186565       -3.23836660439266
C           -2.70475238938238       -1.52456895430150       -0.78631320268920
C           -3.37749799305286       -2.05572229319931        0.30973608000679
C           -4.32158525130485       -3.04992605266414        0.13824781572984
C           -4.61735776202321       -3.51897394368358       -1.13077753858078
C           -3.95314787449951       -2.99639475496188       -2.22711351426651
C           -2.99805896365371       -2.01225849736470       -2.05680335220625
C           -3.08032002982776        1.31588387986967        0.57233236818204
O           -3.16588518717620        1.87610354427403        1.66358558945830
N           -4.14345270898376        1.13812055536589       -0.26034471874215
C           -5.48175071499632        1.50312407461437       -0.08831288466537
C           -5.94842413855949        2.18272710145345        1.03344672133144
C           -7.28480110447799        2.52348722065016        1.13087739313728
C           -8.17433574622450        2.20311339301701        0.12148530756619
C           -7.71269275195986        1.53192000810907       -0.99927819978032
C           -6.38166231579246        1.18372920823559       -1.10556493433029
H           -1.13885293396913        2.61589298617212        2.46854873307335
H            0.29820577945105        3.65210656881326        2.44926041718517
H            0.47008981304656        1.89209531593597        2.46693306028573
H            0.87370236053473        2.91119485736514        0.20535260968237
H           -1.09722755767071        3.81637237584446       -1.05342054446059
H           -2.04414615260219        3.74801619505325        0.43794009031639
H           -0.63489826842886        4.80108797223714        0.33884881860524
H            2.00875099935535        0.10711556463247       -1.65784190656999
H            1.90921299636883        1.77658774740202       -1.08240965623654
H            2.33610683576569        1.05477506522371        1.22325867182654
H            2.31469188197989       -0.64904259959088        0.71969982469974
H            4.28035054103626       -0.25053156305727       -0.73319550638847
H            4.53214752895248       -0.83280712834235        1.73175070079952
H            4.79397160181317        0.89553402446787        2.04567861355738
H            6.48600246956864       -0.90284822140851        0.24030431923244
H            6.75138888825384       -1.24499716801934        2.78248039065755
H            7.22030825169635        0.45216485456607        2.87688646285972
H           10.16193914642784       -1.64820791212802        2.60585260913468
H            7.78654896017341        0.97484482991458        0.11641189274911
H            5.27262609108582        1.91138946402765       -0.31050899855718
H            0.34909228274600       -2.88547633933036        0.25188354289078
H            1.48331994840440       -4.84862494671051       -0.75338998826126
H            1.54260840669399       -2.88425266948896       -4.53349463373343
H            0.42322440367902       -0.91376788282730       -3.53300592107734
H           -3.14349297348078       -1.68974429079052        1.29899862656476
H           -4.82484010030735       -3.46531884293338        0.99780100418995
H           -5.36059916229676       -4.28971017132853       -1.26358121928110
H           -4.18073688580970       -3.35829050283020       -3.21820805171073
H           -2.47544796644646       -1.61010609007188       -2.91162028693784
H           -3.94926766225893        0.65370495578053       -1.12795676271400
H           -5.26324269924091        2.43921484006675        1.82333716928871
H           -7.62995731599555        3.04796568223738        2.00842980849800
H           -9.21490598691856        2.47335844193177        0.20607654175382
H           -8.39549069719596        1.27978740652798       -1.79556420930569
H           -6.02954537094784        0.66000640554910       -1.98163569876280
76
 energy: -119.521365638443 gnorm: 0.007677836254 xtb: 6.7.1 (d3f212b)
C           -0.12930617824652        2.71359041572522        2.08644697586716
C           -0.13433716067389        2.71909177548770        0.55294603438178
C           -1.04210410360881        3.83473835484380        0.02801781481501
C           -0.55776297756226        1.38205944716649        0.03349514503807
C           -1.81088686880817        0.78495219505804        0.04173459380539
C           -1.67859286491651       -0.48287387977548       -0.59851645467788
C           -0.35850006306745       -0.59893630755762       -0.96406971719133
N            0.30373621835745        0.53868220236074       -0.59644817293725
C            1.71420008660092        0.72291091570034       -0.82144281788596
C            2.55117443217914        0.35359744864820        0.40777980095482
C            4.04566647659785        0.46247146577591        0.08182242808033
C            4.89653607916970        0.10790624194260        1.30978985448877
C            6.37651532076562       -0.07754735871451        0.96064748230619
C            7.19053335050201       -0.43226150136947        2.21851655490852
C            8.61598824543749       -0.77242118571028        1.87707294212197
O            9.16396716176310       -0.45229612856775        0.83927035840364
O            9.22569664636842       -1.44498506500108        2.82963686479982
O            6.86010937970385        1.11365284277755        0.37451087539623
O            4.28976729430120        1.77808006212387       -0.36767710144706
C            0.31151898491639       -1.75588257852448       -1.57583265911623
C            0.59794169184425       -2.87128921975894       -0.79522054129640
C            1.22763597095401       -3.97361946474865       -1.34382189683412
C            1.55670393468816       -3.93822626820570       -2.68453172611039
C            1.28126092069874       -2.85176289320030       -3.49141907139803
C            0.65674037084536       -1.75573905627326       -2.92389669946546
F            2.18232605087847       -5.02456969188961       -3.23661147484854
C           -2.70754619235547       -1.51054475143550       -0.78298153162361
C           -3.39523114202735       -2.02584198242036        0.31272507531701
C           -4.33560236535543       -3.02443905044202        0.14077362496697
C           -4.61471053897230       -3.50900261468549       -1.12766143255678
C           -3.94124857888880       -2.99538205641829       -2.22388263517803
C           -2.98800103105848       -2.00842062747684       -2.05338128593049
C           -3.06797421550792        1.32025068891999        0.58318273245840
O           -3.15454783565478        1.89052823142861        1.66986166551039
N           -4.13072804494792        1.12303421241411       -0.24542467190784
C           -5.46813297281971        1.48709699733293       -0.07927119943290
C           -5.93710546666145        2.17122325098559        1.03971562915731
C           -7.27305359795068        2.51635292803646        1.12970642680150
C           -8.15764043690858        2.19365562976588        0.11532055996533
C           -7.69345560516486        1.51539625980833       -1.00102638287160
C           -6.36206070433763        1.16277475409089       -1.10013233712685
H           -1.14592058452989        2.58926297777011        2.45288453631799
H            0.27104469419816        3.65197791465029        2.46207508824843
H            0.47473779540691        1.89369397319407        2.46655237354093
H            0.88288779014621        2.91981729171175        0.20732510811491
H           -1.09841487027234        3.80810037726667       -1.05720577746703
H           -2.04474787427237        3.72599420524858        0.43244471500978
H           -0.65283059811655        4.80156030003936        0.33567506229996
H            2.00795121895879        0.08064098120747       -1.65400418245322
H            1.92816026911887        1.75656882597656       -1.09776285898296
H            2.32274542925008        1.03696056348782        1.22480999550926
H            2.31851621423272       -0.66517015819265        0.71583378011719
H            4.28165221153365       -0.24879355388359       -0.73091724486153
H            4.52487912870913       -0.81950713802984        1.74139038740589
H            4.79759603704899        0.91050729644742        2.04114597566755
H            6.47269576355560       -0.90263986506604        0.23550549495614
H            6.74639555405086       -1.26161114257621        2.76551117655521
H            7.21083979833018        0.43792219039276        2.88075522340145
H           10.16239977840858       -1.64817546311944        2.62744300802006
H            7.78456981509973        0.97548040028003        0.11772034130965
H            5.24926037911942        1.92918934918657       -0.32483750242427
H            0.32629365756794       -2.87250497643914        0.24905928156842
H            1.46393128774817       -4.84361465307568       -0.75388111447203
H            1.55055416602944       -2.87303560075247       -4.53441746992575
H            0.42986829595725       -0.89515823253144       -3.53471778320464
H           -3.17451394328546       -1.64426710175982        1.30021279750157
H           -4.84857410845947       -3.43140073952164        0.99936598692325
H           -5.35290217518085       -4.28522966598157       -1.26018080604416
H           -4.15945450013205       -3.36625580088168       -3.21452364108141
H           -2.45613719091899       -1.61175040731921       -2.90577749575588
H           -3.93730174683274        0.62920417048804       -1.10828718656739
H           -5.25041244924581        2.42705150590974        1.82878418156048
H           -7.62054899106351        3.04590242163707        2.00418360962309
H           -9.19785205085458        2.46829393948430        0.19296124089835
H           -8.37371006105969        1.26188900747793       -1.79985113352075