76
 energy: -119.524773281925 gnorm: 0.000542043761 xtb: 6.7.1 (edcfbbe)
C            0.00142184070883        2.80717873012472        1.97827330929723
C            0.02982087398573        2.75376129761655        0.44719713149019
C           -0.82935453301974        3.87634954185448       -0.14214809807720
C           -0.43450383793958        1.41683548552996       -0.04433686993187
C           -1.70425421241417        0.85927891015816        0.01109071223014
C           -1.63113826971778       -0.42126670729093       -0.61420851456989
C           -0.32848919378092       -0.57768107916833       -1.04297223791498
N            0.37746091617124        0.54742998721889       -0.70849634223520
C            1.80021135581887        0.68222093416841       -0.89942632981047
C            2.58490721637878        0.29140635591424        0.35578476991345
C            4.08170609719746        0.53702763571072        0.14120243784672
C            4.89098904465870        0.11372182994452        1.37419075605749
C            6.39156295724073        0.03612220556546        1.07765917002584
C            7.16246515658807       -0.47201576643934        2.30771617626441
C            8.62484632456605       -0.66532353743495        2.01154037739987
O            9.22721638625250       -0.09471957026013        1.12343906573848
O            9.20061108119997       -1.52493102755497        2.82740547984256
O            6.83914164101945        1.32097004072577        0.69185067621040
O            4.25151581786365        1.90916545699505       -0.15015007014697
C            0.23743635273841       -1.74834087353980       -1.71484900190425
C            0.12345019169957       -2.99898526455591       -1.10925586652746
C            0.60738224543680       -4.13362006959066       -1.73226742582861
C            1.20874722363032       -3.99928609313764       -2.96880578611581
C            1.33037306810489       -2.77909251445147       -3.60391401790491
C            0.83562782456980       -1.65304871715590       -2.97091542414453
F            1.69380420339270       -5.11585530877850       -3.59068944717041
C           -2.70454943619430       -1.40579960196275       -0.73899632602776
C           -3.54832302050417       -1.66857053180429        0.34041401011509
C           -4.57057681705089       -2.59084808256463        0.22480369858909
C           -4.76261408960690       -3.27229687532066       -0.96638650157720
C           -3.92438799110747       -3.02614324060648       -2.04127164583680
C           -2.90452210760072       -2.09915771424239       -1.93157080057358
C           -2.94999675547812        1.43120046529406        0.54648571265245
O           -3.04011825072445        2.02485821513707        1.61845330842687
N           -4.00881430642665        1.21898151986385       -0.28671671733121
C           -5.37337217224738        1.39756902396999       -0.05151259672614
C           -5.87207110812956        2.16283594047705        0.99793187764837
C           -7.23943459541527        2.29327112609140        1.16452187469231
C           -8.12011422285307        1.67378507841555        0.29454793488094
C           -7.62502496609840        0.91108602751583       -0.75131497445196
C           -6.26255813601506        0.77220111718141       -0.92545193659044
H           -1.01517279298393        2.66647284722129        2.33608982856468
H            0.36404961161113        3.77211247134803        2.32295960375636
H            0.62709450462210        2.02705410017678        2.40547458289418
H            1.06152951656109        2.91224464671719        0.12286671993734
H           -0.84903810673169        3.81673129688540       -1.22780609264095
H           -1.84839812396995        3.80859416334915        0.22982301073059
H           -0.42481474324649        4.84291821619214        0.14698319839894
H            2.10243919735495        0.03017790260579       -1.71866931844433
H            2.04938889709770        1.70968563922649       -1.16855034712291
H            2.25101658164638        0.89482256246311        1.19946448194086
H            2.41317698633347       -0.76079356696936        0.58288954085226
H            4.41775609611833       -0.05967112724174       -0.72544421622650
H            4.54856535798358       -0.86331335328158        1.71041720458798
H            4.72190535391870        0.84445901116149        2.16607428846002
H            6.55672213855193       -0.66757121937604        0.24469195286880
H            6.74970873092603       -1.41101563809263        2.67232169828531
H            7.08524859718968        0.26947710267201        3.10700107059330
H           10.15623163674682       -1.64067635430318        2.65659143695601
H            7.79298255688336        1.27011216173308        0.51966944884592
H            5.19353143147229        2.11972517896978       -0.04324119969940
H           -0.35168413050259       -3.07703479025614       -0.14421816941109
H            0.52489527630472       -5.10655305866977       -1.27630846338132
H            1.79337885745198       -2.72193225415022       -4.57555970795868
H            0.88923793648317       -0.69915958256505       -3.47265730783866
H           -3.39460694026667       -1.14383234164659        1.27334912784045
H           -5.21913791390100       -2.77915154585975        1.06733842436545
H           -5.56187290201199       -3.99221233112172       -1.05489320445765
H           -4.06909331246662       -3.55511102234405       -2.97154639961733
H           -2.26110836799503       -1.89935214076235       -2.77529846414121
H           -3.80224017712664        0.69796718376150       -1.12950397768960
H           -5.18869024384304        2.64197354510734        1.67969460848679
H           -7.61601618580682        2.88858789176793        1.98255304652696
H           -9.18484932367592        1.78343749851637        0.43032878797184
H           -8.30317894541592        0.42117363411784       -1.43312207862814
H           -5.87543685225159        0.16937892300604       -1.73448247448191
